                         Program Version 6.0.1  -  RELEASE   -
|  1> !def2-SVP PBE0 SARC/J def2-SVP/C Opt
|  2> * xyzfile 0 1 CH3Br.xyz
|  3> %scf
|  4> MaxIter 100
|  5> end
|  6> %rel
|  7> method DKH
|  8> order 2
|  9> picturechange 2
| 10> end
| 11> $new_job
| 12> !def2-SVP PBE0 RI-SOMF(1X) SARC/J def2-SVP/C
| 13> %TDDFT
| 14> NROOTS  3
| 15> DOSOC   TRUE
| 16> TDA     TRUE
| 17> TRIPLETS TRUE
| 18> END
| 19> * xyzfile 0 1 CH3Br.xyz
| 20> %scf
| 21> MaxIter 100
| 22> end
| 23> %rel
| 24> method DKH
| 25> order 2
| 26> picturechange 2
| 27> SOCType 3
| 28> SOCFlags 1,3,3,0
| 29> SOCMaxCenter 4
| 30> end
| 31>
| 32>                          ****END OF INPUT****
 Total Charge           Charge          ....    0
 Multiplicity           Mult            ....    1
 Number of Electrons    NEL             ....   44
FINAL SINGLE POINT ENERGY     -2636.837577563606
FINAL SINGLE POINT ENERGY     -2636.837887980318
FINAL SINGLE POINT ENERGY     -2636.837930545737
FINAL SINGLE POINT ENERGY     -2636.837951177496
FINAL SINGLE POINT ENERGY     -2636.837952205133
                    ***********************HURRAY********************
FINAL SINGLE POINT ENERGY     -2636.837952253761

CARTESIAN COORDINATES (ANGSTROEM)
---------------------------------
  C     -0.007044   -0.007044   -0.007044
  Br     1.104839    1.104839    1.104839
  H     -0.631498    0.641957   -0.631498
  H      0.641957   -0.631498   -0.631498
  H     -0.631498   -0.631498    0.641957

 Multiplicity           Mult            ....    1
 Number of Electrons    NEL             ....   44
 Basis Dimension        Dim             ....   61

ORBITAL ENERGIES
----------------

  NO   OCC          E(Eh)            E(eV)
   0   2.0000    -489.202157    -13311.8675
   1   2.0000     -64.377402     -1751.7982
   2   2.0000     -57.184660     -1556.0737
   3   2.0000     -57.182072     -1556.0033
   4   2.0000     -57.182072     -1556.0033
   5   2.0000     -10.290793      -280.0267
   6   2.0000      -9.018653      -245.4100
   7   2.0000      -6.684189      -181.8860
   8   2.0000      -6.670634      -181.5172
   9   2.0000      -6.670634      -181.5172
  10   2.0000      -2.631505       -71.6069
  11   2.0000      -2.627684       -71.5029
  12   2.0000      -2.627684       -71.5029
  13   2.0000      -2.616701       -71.2040
  14   2.0000      -2.616701       -71.2040
  15   2.0000      -0.837198       -22.7813
  16   2.0000      -0.687536       -18.7088
  17   2.0000      -0.454414       -12.3652
  18   2.0000      -0.454414       -12.3652
  19   2.0000      -0.400682       -10.9031
  20   2.0000      -0.283642        -7.7183
  21   2.0000      -0.283642        -7.7183
  22   0.0000       0.016028         0.4361
  23   0.0000       0.085365         2.3229
  24   0.0000       0.128272         3.4905
  25   0.0000       0.128272         3.4905
  26   0.0000       0.342451         9.3186

MULLIKEN ATOMIC CHARGES
-----------------------
   0 C :   -0.145370
   1 Br:   -0.157385
   2 H :    0.100918
   3 H :    0.100918
   4 H :    0.100918
Sum of atomic charges:   -0.0000000

LOEWDIN ATOMIC CHARGES
----------------------
   0 C :   -0.115625
   1 Br:    0.003511
   2 H :    0.037371
   3 H :    0.037371
   4 H :    0.037371

  Mayer bond orders larger than 0.100000
B(  0-C ,  1-Br) :   1.0132 B(  0-C ,  2-H ) :   0.9705 B(  0-C ,  3-H ) :   0.9705
B(  0-C ,  4-H ) :   0.9705

--------------------------------------------------------------------------------------------------------
      SOC CORRECTED ABSORPTION SPECTRUM VIA TRANSITION ELECTRIC DIPOLE MOMENTS
--------------------------------------------------------------------------------------------------------
      Transition         Energy     Energy  Wavelength fosc(D2)      D2       |DX|      |DY|      |DZ|
                          (eV)      (cm-1)    (nm)                 (au**2)    (au)      (au)      (au)
--------------------------------------------------------------------------------------------------------
  0-1.0A  ->  1-3.0A    5.546419   44734.9   223.5   0.000000125   0.00000   0.00008   0.00063   0.00071
  0-1.0A  ->  2-3.0A    5.546419   44734.9   223.5   0.000000125   0.00000   0.00078   0.00046   0.00032
  0-1.0A  ->  3-3.0A    5.651707   45584.1   219.4   0.000000530   0.00000   0.00015   0.00130   0.00145
  0-1.0A  ->  4-3.0A    5.651715   45584.2   219.4   0.000000514   0.00000   0.00157   0.00091   0.00066
  0-1.0A  ->  5-3.0A    5.791655   46712.9   214.1   0.000000000   0.00000   0.00000   0.00000   0.00000
  0-1.0A  ->  6-3.0A    5.805708   46826.2   213.6   0.000184151   0.00129   0.02077   0.02077   0.02077
  0-1.0A  ->  7-1.0A    6.519813   52585.8   190.2   0.000032072   0.00020   0.00174   0.00903   0.01078
  0-1.0A  ->  8-1.0A    6.519814   52585.9   190.2   0.000032086   0.00020   0.01144   0.00723   0.00421
  0-1.0A  ->  9-3.0A    8.083267   65196.0   153.4   0.000000000   0.00000   0.00000   0.00000   0.00000
  0-1.0A  -> 10-3.0A    8.085549   65214.4   153.3   0.000000562   0.00000   0.00014   0.00112   0.00125
  0-1.0A  -> 11-3.0A    8.085706   65215.6   153.3   0.000000386   0.00000   0.00113   0.00067   0.00047
  0-1.0A  -> 12-1.0A    8.701415   70181.7   142.5   0.000069306   0.00033   0.00148   0.01194   0.01343

FINAL SINGLE POINT ENERGY     -2636.634125110316

DIPOLE MOMENT
-------------

Method             : SCF
Type of density    : Electron Density
Multiplicity       :   1
Irrep              :   0
Energy             : -2636.8379522520972387 Eh
Relativity type    :
Basis              : AO
                                X                 Y                 Z
Electronic contribution:      4.476521904       4.476522746       4.476521863
Nuclear contribution   :     -4.872850431      -4.872851169      -4.872850299
                        -----------------------------------------
Total Dipole Moment    :     -0.396328527      -0.396328423      -0.396328436
                        -----------------------------------------
Magnitude (a.u.)       :      0.686461033
Magnitude (Debye)      :      1.744845280

Rotational constants in cm-1:             5.156310             0.322249             0.322249
Rotational constants in MHz :        154582.287821          9660.772389          9660.772356

                             ****ORCA TERMINATED NORMALLY****
TOTAL RUN TIME: 0 days 0 hours 0 minutes 22 seconds 462 msec
