                         Program Version 6.0.1  -  RELEASE   -
|  1> !def2-SVP PBE0 SARC/J def2-SVP/C Opt
|  2> * xyzfile 0 1 hcl.xyz
|  3> %scf
|  4> MaxIter 100
|  5> end
|  6> %rel
|  7> method DKH
|  8> order 2
|  9> picturechange 2
| 10> end
| 11> $new_job
| 12> !def2-SVP PBE0 RI-SOMF(1X) SARC/J def2-SVP/C
| 13> %TDDFT
| 14> NROOTS  3
| 15> DOSOC   TRUE
| 16> TDA     TRUE
| 17> TRIPLETS TRUE
| 18> END
| 19> * xyzfile 0 1 hcl.xyz
| 20> %scf
| 21> MaxIter 100
| 22> end
| 23> %rel
| 24> method DKH
| 25> order 2
| 26> picturechange 2
| 27> SOCType 3
| 28> SOCFlags 1,3,3,0
| 29> SOCMaxCenter 4
| 30> end
| 31>
| 32>                          ****END OF INPUT****
 Total Charge           Charge          ....    0
 Multiplicity           Mult            ....    1
 Number of Electrons    NEL             ....   18
FINAL SINGLE POINT ENERGY      -461.640241997029
FINAL SINGLE POINT ENERGY      -461.714147242989
FINAL SINGLE POINT ENERGY      -461.723235215041
FINAL SINGLE POINT ENERGY      -461.726071312238
FINAL SINGLE POINT ENERGY      -461.726299002600
FINAL SINGLE POINT ENERGY      -461.726305406923
                    ***********************HURRAY********************
FINAL SINGLE POINT ENERGY      -461.726305427099

CARTESIAN COORDINATES (ANGSTROEM)
---------------------------------
  H     -0.142484    0.000000    0.000000
  Cl     1.142484    0.000000    0.000000

 Multiplicity           Mult            ....    1
 Number of Electrons    NEL             ....   18
 Basis Dimension        Dim             ....   23

ORBITAL ENERGIES
----------------

  NO   OCC          E(Eh)            E(eV)
   0   2.0000    -102.062949     -2777.2740
   1   2.0000      -9.603020      -261.3115
   2   2.0000      -7.285365      -198.2448
   3   2.0000      -7.275333      -197.9719
   4   2.0000      -7.275333      -197.9719
   5   2.0000      -0.857248       -23.3269
   6   2.0000      -0.474440       -12.9102
   7   2.0000      -0.330993        -9.0068
   8   2.0000      -0.330993        -9.0068
   9   0.0000       0.033108         0.9009
  10   0.0000       0.343288         9.3413
  11   0.0000       0.536190        14.5905
  12   0.0000       0.705484        19.1972
  13   0.0000       0.705484        19.1972

MULLIKEN ATOMIC CHARGES
-----------------------
   0 H :    0.151416
   1 Cl:   -0.151416
Sum of atomic charges:    0.0000000

LOEWDIN ATOMIC CHARGES
----------------------
   0 H :    0.018710
   1 Cl:   -0.018710

  Mayer bond orders larger than 0.100000
B(  0-H ,  1-Cl) :   0.9831

--------------------------------------------------------------------------------------------------------
      SOC CORRECTED ABSORPTION SPECTRUM VIA TRANSITION ELECTRIC DIPOLE MOMENTS
--------------------------------------------------------------------------------------------------------
      Transition         Energy     Energy  Wavelength fosc(D2)      D2       |DX|      |DY|      |DZ|
                          (eV)      (cm-1)    (nm)                 (au**2)    (au)      (au)      (au)
--------------------------------------------------------------------------------------------------------
  0-1.0A  ->  1-3.0A    7.241767   58408.8   171.2   0.000000000   0.00000   0.00000   0.00000   0.00000
  0-1.0A  ->  2-3.0A    7.241767   58408.8   171.2   0.000000000   0.00000   0.00000   0.00000   0.00000
  0-1.0A  ->  3-3.0A    7.273535   58665.0   170.5   0.000002547   0.00001   0.00000   0.00268   0.00266
  0-1.0A  ->  4-3.0A    7.273535   58665.0   170.5   0.000002547   0.00001   0.00000   0.00266   0.00268
  0-1.0A  ->  5-3.0A    7.308105   58943.9   169.7   0.000000000   0.00000   0.00000   0.00000   0.00000
  0-1.0A  ->  6-3.0A    7.308601   58947.9   169.6   0.000072448   0.00040   0.02011   0.00000   0.00000
  0-1.0A  ->  7-1.0A    8.055754   64974.0   153.9   0.001561595   0.00791   0.00000   0.06189   0.06389
  0-1.0A  ->  8-1.0A    8.055754   64974.0   153.9   0.001561595   0.00791   0.00000   0.06389   0.06189
  0-1.0A  ->  9-3.0A   10.204545   82305.2   121.5   0.000000000   0.00000   0.00000   0.00000   0.00000
  0-1.0A  -> 10-3.0A   10.204637   82306.0   121.5   0.000000990   0.00000   0.00000   0.00131   0.00149
  0-1.0A  -> 11-3.0A   10.204637   82306.0   121.5   0.000000990   0.00000   0.00000   0.00149   0.00131
  0-1.0A  -> 12-1.0A   13.471908  108658.3    92.0   0.715422869   2.16758   1.47227   0.00000   0.00000

FINAL SINGLE POINT ENERGY      -461.460175350574

DIPOLE MOMENT
-------------

Method             : SCF
Type of density    : Electron Density
Multiplicity       :   1
Irrep              :   0
Energy             :  -461.7263054251727681 Eh
Relativity type    :
Basis              : AO
                                X                 Y                 Z
Electronic contribution:      0.681466115       0.000000000      -0.000000000
Nuclear contribution   :     -1.219879218       0.000000000       0.000000000
                        -----------------------------------------
Total Dipole Moment    :     -0.538413103       0.000000000      -0.000000000
                        -----------------------------------------
Magnitude (a.u.)       :      0.538413103
Magnitude (Debye)      :      1.368537349

Rotational constants in cm-1:             0.000000            10.416638            10.416638
Rotational constants in MHz :             0.000000        312282.946879        312282.946879

                             ****ORCA TERMINATED NORMALLY****
TOTAL RUN TIME: 0 days 0 hours 0 minutes 13 seconds 16 msec
