                         Program Version 6.0.1  -  RELEASE   -
|  1> !def2-SVP PBE0 SARC/J def2-SVP/C Opt
|  2> * xyzfile 0 1 CH3Cl.xyz
|  3> %scf
|  4> MaxIter 100
|  5> end
|  6> %rel
|  7> method DKH
|  8> order 2
|  9> picturechange 2
| 10> end
| 11> $new_job
| 12> !def2-SVP PBE0 RI-SOMF(1X) SARC/J def2-SVP/C
| 13> %TDDFT
| 14> NROOTS  20
| 15> DOSOC   TRUE
| 16> TDA     TRUE
| 17> TRIPLETS TRUE
| 18> END
| 19> * xyzfile 0 1 CH3Cl.xyz
| 20> %scf
| 21> MaxIter 100
| 22> end
| 23> %rel
| 24> method DKH
| 25> order 2
| 26> picturechange 2
| 27> SOCType 3
| 28> SOCFlags 1,3,3,0
| 29> SOCMaxCenter 4
| 30> end
| 31>
| 32>                          ****END OF INPUT****
 Total Charge           Charge          ....    0
 Multiplicity           Mult            ....    1
 Number of Electrons    NEL             ....   26
FINAL SINGLE POINT ENERGY      -500.959284494713
FINAL SINGLE POINT ENERGY      -500.965963960318
FINAL SINGLE POINT ENERGY      -500.966321296861
FINAL SINGLE POINT ENERGY      -500.966430853436
FINAL SINGLE POINT ENERGY      -500.966464906812
                    ***********************HURRAY********************
FINAL SINGLE POINT ENERGY      -500.966464932177

CARTESIAN COORDINATES (ANGSTROEM)
---------------------------------
  C      0.014690    0.014690    0.014690
  Cl     1.039667    1.039667    1.039668
  H     -0.615822    0.654042   -0.615822
  H      0.654042   -0.615821   -0.615821
  H     -0.615821   -0.615821    0.654042

 Multiplicity           Mult            ....    1
 Number of Electrons    NEL             ....   26
 Basis Dimension        Dim             ....   47

ORBITAL ENERGIES
----------------

  NO   OCC          E(Eh)            E(eV)
   0   2.0000    -102.048391     -2776.8779
   1   2.0000     -10.292145      -280.0635
   2   2.0000      -9.588977      -260.9293
   3   2.0000      -7.271533      -197.8685
   4   2.0000      -7.261071      -197.5838
   5   2.0000      -7.261071      -197.5838
   6   2.0000      -0.871449       -23.7133
   7   2.0000      -0.686161       -18.6714
   8   2.0000      -0.458622       -12.4797
   9   2.0000      -0.458622       -12.4797
  10   2.0000      -0.424127       -11.5411
  11   2.0000      -0.300232        -8.1697
  12   2.0000      -0.300232        -8.1697
  13   0.0000       0.051345         1.3972
  14   0.0000       0.091644         2.4938
  15   0.0000       0.129334         3.5194
  16   0.0000       0.129334         3.5194
  17   0.0000       0.409166        11.1340

MULLIKEN ATOMIC CHARGES
-----------------------
   0 C :   -0.092650
   1 Cl:   -0.190598
   2 H :    0.094416
   3 H :    0.094416
   4 H :    0.094416
Sum of atomic charges:   -0.0000000

LOEWDIN ATOMIC CHARGES
----------------------
   0 C :   -0.114262
   1 Cl:    0.014888
   2 H :    0.033125
   3 H :    0.033125
   4 H :    0.033125

  Mayer bond orders larger than 0.100000
B(  0-C ,  1-Cl) :   1.0064 B(  0-C ,  2-H ) :   0.9730 B(  0-C ,  3-H ) :   0.9730
B(  0-C ,  4-H ) :   0.9730

--------------------------------------------------------------------------------------------------------
      SOC CORRECTED ABSORPTION SPECTRUM VIA TRANSITION ELECTRIC DIPOLE MOMENTS
--------------------------------------------------------------------------------------------------------
      Transition         Energy     Energy  Wavelength fosc(D2)      D2       |DX|      |DY|      |DZ|
                          (eV)      (cm-1)    (nm)                 (au**2)    (au)      (au)      (au)
--------------------------------------------------------------------------------------------------------
  0-1.0A  ->  1-3.0A    6.900626   55657.3   179.7   0.000000003   0.00000   0.00004   0.00007   0.00011
  0-1.0A  ->  2-3.0A    6.900626   55657.3   179.7   0.000000003   0.00000   0.00010   0.00009   0.00002
  0-1.0A  ->  3-3.0A    6.930076   55894.8   178.9   0.000000082   0.00000   0.00009   0.00053   0.00044
  0-1.0A  ->  4-3.0A    6.930076   55894.8   178.9   0.000000082   0.00000   0.00056   0.00020   0.00036
  0-1.0A  ->  5-3.0A    6.961480   56148.1   178.1   0.000000000   0.00000   0.00000   0.00000   0.00000
  0-1.0A  ->  6-3.0A    6.961985   56152.2   178.1   0.000070727   0.00041   0.01176   0.01176   0.01176
  0-1.0A  ->  7-1.0A    7.858907   63386.4   157.8   0.000283979   0.00147   0.03065   0.00957   0.02107
  0-1.0A  ->  8-1.0A    7.858908   63386.4   157.8   0.000283985   0.00147   0.00664   0.02986   0.02322
  0-1.0A  ->  9-3.0A    8.896078   71751.7   139.4   0.000000007   0.00000   0.00015   0.00005   0.00009
  0-1.0A  -> 10-3.0A    8.896078   71751.7   139.4   0.000000007   0.00000   0.00002   0.00014   0.00011
  0-1.0A  -> 11-3.0A    8.919921   71944.0   139.0   0.000092616   0.00042   0.00560   0.01652   0.01093
  0-1.0A  -> 12-3.0A    8.919921   71944.0   139.0   0.000092618   0.00042   0.01585   0.00308   0.01277
  0-1.0A  -> 13-3.0A    8.949781   72184.9   138.5   0.000000000   0.00000   0.00000   0.00000   0.00000
  0-1.0A  -> 14-3.0A    8.949850   72185.4   138.5   0.000000061   0.00000   0.00030   0.00030   0.00030
  0-1.0A  -> 15-1.0A    9.181897   74057.0   135.0   0.009805412   0.04359   0.16174   0.03422   0.12751
  0-1.0A  -> 16-1.0A    9.181898   74057.0   135.0   0.009805376   0.04359   0.05386   0.16700   0.11313
  0-1.0A  -> 17-3.0A    9.584208   77301.9   129.4   0.000000000   0.00000   0.00000   0.00000   0.00000
  0-1.0A  -> 18-3.0A    9.584375   77303.2   129.4   0.000000110   0.00000   0.00052   0.00008   0.00044
  0-1.0A  -> 19-3.0A    9.584375   77303.2   129.4   0.000000110   0.00000   0.00020   0.00055   0.00035
  0-1.0A  -> 20-3.0A    9.800375   79045.4   126.5   0.000002562   0.00001   0.00259   0.00075   0.00184
  0-1.0A  -> 21-3.0A    9.800375   79045.4   126.5   0.000002562   0.00001   0.00063   0.00256   0.00193
  0-1.0A  -> 22-3.0A    9.800614   79047.3   126.5   0.000000000   0.00000   0.00000   0.00000   0.00000
  0-1.0A  -> 23-3.0A   10.003418   80683.0   123.9   0.000000861   0.00000   0.00108   0.00108   0.00108
  0-1.0A  -> 24-3.0A   10.003423   80683.1   123.9   0.000000000   0.00000   0.00000   0.00000   0.00000
  0-1.0A  -> 25-3.0A   10.025937   80864.6   123.7   0.000142542   0.00058   0.01901   0.00513   0.01388
  0-1.0A  -> 26-3.0A   10.025937   80864.6   123.7   0.000142544   0.00058   0.00505   0.01899   0.01394
  0-1.0A  -> 27-3.0A   10.054067   81091.5   123.3   0.000003002   0.00001   0.00240   0.00013   0.00253
  0-1.0A  -> 28-3.0A   10.054067   81091.5   123.3   0.000003002   0.00001   0.00154   0.00285   0.00131
  0-1.0A  -> 29-3.0A   10.203049   82293.1   121.5   0.000822383   0.00329   0.03312   0.03312   0.03312
  0-1.0A  -> 30-3.0A   10.207839   82331.8   121.5   0.000002186   0.00001   0.00075   0.00236   0.00161
  0-1.0A  -> 31-3.0A   10.207839   82331.8   121.5   0.000002186   0.00001   0.00229   0.00050   0.00180
  0-1.0A  -> 32-1.0A   10.244441   82627.0   121.0   0.000000000   0.00000   0.00000   0.00000   0.00000
  0-1.0A  -> 33-1.0A   10.321046   83244.9   120.1   0.019017345   0.07521   0.22070   0.07758   0.14312
  0-1.0A  -> 34-1.0A   10.321046   83244.9   120.1   0.019017561   0.07521   0.03784   0.21005   0.17221
  0-1.0A  -> 35-1.0A   10.490378   84610.6   118.2   0.070561744   0.27455   0.30252   0.30252   0.30252
  0-1.0A  -> 36-3.0A   11.141830   89864.9   111.3   0.000000579   0.00000   0.00119   0.00068   0.00051
  0-1.0A  -> 37-3.0A   11.141830   89864.9   111.3   0.000000579   0.00000   0.00010   0.00098   0.00108
  0-1.0A  -> 38-3.0A   11.145457   89894.2   111.2   0.000000019   0.00000   0.00021   0.00013   0.00009
  0-1.0A  -> 39-3.0A   11.145459   89894.2   111.2   0.000000019   0.00000   0.00002   0.00017   0.00020
  0-1.0A  -> 40-3.0A   11.149009   89922.8   111.2   0.000101710   0.00037   0.01114   0.01114   0.01114
  0-1.0A  -> 41-3.0A   11.149109   89923.6   111.2   0.000000000   0.00000   0.00000   0.00000   0.00000
  0-1.0A  -> 42-3.0A   11.933285   96248.4   103.9   0.000000000   0.00000   0.00000   0.00000   0.00000
  0-1.0A  -> 43-3.0A   11.933418   96249.5   103.9   0.000015318   0.00005   0.00152   0.00571   0.00419
  0-1.0A  -> 44-3.0A   11.933418   96249.5   103.9   0.000015317   0.00005   0.00571   0.00154   0.00417
  0-1.0A  -> 45-1.0A   12.044471   97145.2   102.9   0.021464943   0.07274   0.02542   0.17674   0.20214
  0-1.0A  -> 46-1.0A   12.044473   97145.2   102.9   0.021464940   0.07274   0.21874   0.13138   0.08737
  0-1.0A  -> 47-1.0A   12.168364   98144.5   101.9   0.398426785   1.33647   0.66745   0.66744   0.66746
  0-1.0A  -> 48-3.0A   12.319235   99361.3   100.6   0.000000011   0.00000   0.00012   0.00004   0.00015
  0-1.0A  -> 49-3.0A   12.319235   99361.3   100.6   0.000000011   0.00000   0.00011   0.00015   0.00004
  0-1.0A  -> 50-3.0A   12.323737   99397.6   100.6   0.000004136   0.00001   0.00297   0.00199   0.00098
  0-1.0A  -> 51-3.0A   12.323738   99397.7   100.6   0.000004136   0.00001   0.00058   0.00228   0.00286
  0-1.0A  -> 52-3.0A   12.328276   99434.3   100.6   0.000000000   0.00000   0.00000   0.00000   0.00000
  0-1.0A  -> 53-3.0A   12.328718   99437.8   100.6   0.002772014   0.00918   0.05531   0.05531   0.05531
  0-1.0A  -> 54-3.0A   12.943397  104395.5    95.8   0.000000000   0.00000   0.00000   0.00000   0.00000
  0-1.0A  -> 55-3.0A   12.943421  104395.7    95.8   0.000018560   0.00006   0.00571   0.00065   0.00505
  0-1.0A  -> 56-3.0A   12.943421  104395.7    95.8   0.000018561   0.00006   0.00254   0.00621   0.00367
  0-1.0A  -> 57-2.8A   13.179014  106295.9    94.1   0.012783376   0.03959   0.15023   0.02156   0.12867
  0-1.0A  -> 58-2.8A   13.179014  106295.9    94.1   0.012787458   0.03960   0.06182   0.16105   0.09923
  0-1.0A  -> 59-3.0A   13.179459  106299.5    94.1   0.000040864   0.00013   0.00648   0.00651   0.00649
  0-1.0A  -> 60-3.0A   13.179529  106300.1    94.1   0.000004592   0.00001   0.00275   0.00015   0.00257
  0-1.0A  -> 61-3.0A   13.179529  106300.1    94.1   0.000004662   0.00001   0.00142   0.00309   0.00170
  0-1.0A  -> 62-3.0A   13.179884  106302.9    94.1   0.000000000   0.00000   0.00000   0.00000   0.00001
  0-1.0A  -> 63-1.2A   13.184787  106342.5    94.0   0.116000329   0.35911   0.08169   0.37694   0.45864
  0-1.0A  -> 64-1.2A   13.184789  106342.5    94.0   0.116007184   0.35913   0.48244   0.31197   0.17047
  0-1.0A  -> 65-1.0A   13.378455  107904.5    92.7   0.944974262   2.88307   0.98032   0.98030   0.98033
  0-1.0A  -> 66-3.0A   13.520986  109054.1    91.7   0.000058494   0.00018   0.00767   0.00768   0.00767
  0-1.0A  -> 67-3.0A   13.520992  109054.2    91.7   0.000000000   0.00000   0.00000   0.00000   0.00000
  0-1.0A  -> 68-3.0A   13.526006  109094.6    91.7   0.000785412   0.00237   0.03673   0.00520   0.03153
  0-1.0A  -> 69-3.0A   13.526006  109094.6    91.7   0.000786049   0.00237   0.01521   0.03943   0.02421
  0-1.0A  -> 70-2.7A   13.527047  109103.0    91.7   0.016468912   0.04969   0.08105   0.18167   0.10061
  0-1.0A  -> 71-2.7A   13.527047  109103.0    91.7   0.016468221   0.04969   0.16297   0.01129   0.15167
  0-1.0A  -> 72-1.4A   13.549124  109281.1    91.5   0.072722561   0.21908   0.13381   0.37693   0.24309
  0-1.0A  -> 73-1.4A   13.549125  109281.1    91.5   0.072724146   0.21908   0.35798   0.06309   0.29488
  0-1.0A  -> 74-3.0A   13.907277  112169.8    89.2   0.000000794   0.00000   0.00088   0.00088   0.00088
  0-1.0A  -> 75-3.0A   13.907375  112170.6    89.1   0.000010698   0.00003   0.00435   0.00339   0.00096
  0-1.0A  -> 76-3.0A   13.907375  112170.6    89.1   0.000010698   0.00003   0.00140   0.00307   0.00447
  0-1.0A  -> 77-1.0A   14.080979  113570.8    88.1   0.000000000   0.00000   0.00000   0.00000   0.00000
  0-1.0A  -> 78-1.0A   14.565116  117475.6    85.1   0.351966081   0.98634   0.58913   0.18800   0.77713
  0-1.0A  -> 79-1.0A   14.565117  117475.6    85.1   0.351966854   0.98635   0.55722   0.78881   0.23159
  0-1.0A  -> 80-1.0A   15.631886  126079.7    79.3   0.006138038   0.01603   0.07309   0.07310   0.07309

FINAL SINGLE POINT ENERGY      -500.712871570573

DIPOLE MOMENT
-------------

Method             : SCF
Type of density    : Electron Density
Multiplicity       :   1
Irrep              :   0
Energy             :  -500.9664649316961231 Eh
Relativity type    :
Basis              : AO
                                X                 Y                 Z
Electronic contribution:      2.578586802       2.578585885       2.578586961
Nuclear contribution   :     -3.000392680      -3.000391680      -3.000392828
                        -----------------------------------------
Total Dipole Moment    :     -0.421805878      -0.421805795      -0.421805868
                        -----------------------------------------
Magnitude (a.u.)       :      0.730589158
Magnitude (Debye)      :      1.857010060

Rotational constants in cm-1:             5.185519             0.443940             0.443940
Rotational constants in MHz :        155457.939202         13308.977711         13308.977490

                             ****ORCA TERMINATED NORMALLY****
TOTAL RUN TIME: 0 days 0 hours 0 minutes 31 seconds 928 msec
