                         Program Version 6.0.1  -  RELEASE   -
|  1> !def2-SVP PBE0 SARC/J def2-SVP/C Opt
|  2> * xyzfile 0 1 n1_CNNH2.xyz
|  3> %scf
|  4> MaxIter 100
|  5> end
|  6> %rel
|  7> method DKH
|  8> order 2
|  9> picturechange 2
| 10> end
| 11> $new_job
| 12> !def2-SVP PBE0 RI-SOMF(1X) SARC/J def2-SVP/C
| 13> %TDDFT
| 14> NROOTS  3
| 15> DOSOC   TRUE
| 16> TDA     TRUE
| 17> TRIPLETS TRUE
| 18> END
| 19> * xyzfile 0 1 n1_CNNH2.xyz
| 20> %scf
| 21> MaxIter 100
| 22> end
| 23> %rel
| 24> method DKH
| 25> order 2
| 26> picturechange 2
| 27> SOCType 3
| 28> SOCFlags 1,3,3,0
| 29> SOCMaxCenter 4
| 30> end
| 31>
| 32>                          ****END OF INPUT****
 Total Charge           Charge          ....    0
 Multiplicity           Mult            ....    1
 Number of Electrons    NEL             ....  142
FINAL SINGLE POINT ENERGY      -840.259169449234
FINAL SINGLE POINT ENERGY      -840.431701358734
FINAL SINGLE POINT ENERGY      -840.540630789080
FINAL SINGLE POINT ENERGY      -840.637418512401
FINAL SINGLE POINT ENERGY      -840.679789826304
FINAL SINGLE POINT ENERGY      -840.680535987231
FINAL SINGLE POINT ENERGY      -840.680900786450
FINAL SINGLE POINT ENERGY      -840.681105451560
FINAL SINGLE POINT ENERGY      -840.681264603840
FINAL SINGLE POINT ENERGY      -840.681512403051
FINAL SINGLE POINT ENERGY      -840.683789379032
FINAL SINGLE POINT ENERGY      -840.683801375047
FINAL SINGLE POINT ENERGY      -840.683812610648
FINAL SINGLE POINT ENERGY      -840.683834363938
FINAL SINGLE POINT ENERGY      -840.683848089844
FINAL SINGLE POINT ENERGY      -840.683862502142
FINAL SINGLE POINT ENERGY      -840.683869684332
FINAL SINGLE POINT ENERGY      -840.683872056469
                    ***********************HURRAY********************
FINAL SINGLE POINT ENERGY      -840.683872715144

CARTESIAN COORDINATES (ANGSTROEM)
---------------------------------
  C     -3.179892   -0.640818   -0.074649
  C     -1.769392   -0.551965   -0.022406
  C     -3.771934   -1.911857   -0.099057
  C     -3.008757   -3.075019   -0.087733
  C     -1.619699   -2.986138   -0.052779
  C     -1.014459   -1.734301   -0.018801
  H     -4.861077   -1.977543   -0.159079
  H     -3.500698   -4.050257   -0.115824
  H     -1.005432   -3.889554   -0.042186
  H      0.074308   -1.662520    0.044116
  C     -4.065072    0.552597   -0.143884
  C     -5.124598    0.679386    0.760196
  C     -6.007615    1.770993    0.708293
  C     -5.803199    2.744541   -0.284151
  C     -4.753869    2.616107   -1.187105
  C     -3.880910    1.533017   -1.128261
  C     -1.045857    0.742947    0.073531
  C     -1.401079    1.711009    1.025261
  C     -0.686339    2.899614    1.139999
  C      0.397569    3.156301    0.306981
  C      0.765763    2.199786   -0.648844
  C      0.046601    1.001003   -0.760016
  H     -5.263857   -0.083604    1.531901
  H     -6.479493    3.601598   -0.346985
  H      0.961613    4.087050    0.388713
  H     -4.616686    3.379183   -1.957663
  H     -3.067230    1.438566   -1.849328
  H     -2.247812    1.521024    1.687681
  H     -0.977288    3.636343    1.892072
  C      1.878419    2.445183   -1.518847
  H      0.337938    0.271217   -1.518083
  N      2.779309    2.647708   -2.221003
  N     -7.073840    1.858784    1.579722
  H     -7.005579    1.326265    2.436978
  H     -7.479197    2.776556    1.708170

 Multiplicity           Mult            ....    1
 Number of Electrons    NEL             ....  142
 Basis Dimension        Dim             ....  364

ORBITAL ENERGIES
----------------

  NO   OCC          E(Eh)            E(eV)
   0   2.0000     -14.415405      -392.2631
   1   2.0000     -14.396573      -391.7507
   2   2.0000     -10.289062      -279.9796
   3   2.0000     -10.287135      -279.9272
   4   2.0000     -10.275318      -279.6056
   5   2.0000     -10.270828      -279.4834
   6   2.0000     -10.268353      -279.4161
   7   2.0000     -10.267785      -279.4006
   8   2.0000     -10.264006      -279.2978
   9   2.0000     -10.262168      -279.2478
  10   2.0000     -10.262100      -279.2459
  11   2.0000     -10.261450      -279.2282
  12   2.0000     -10.255661      -279.0707
  13   2.0000     -10.252477      -278.9841
  14   2.0000     -10.251305      -278.9522
  15   2.0000     -10.250791      -278.9382
  16   2.0000     -10.250119      -278.9199
  17   2.0000     -10.244411      -278.7646
  18   2.0000     -10.240376      -278.6548
  19   2.0000     -10.239149      -278.6214
  20   2.0000     -10.234007      -278.4815
  21   2.0000      -0.948020       -25.7969
  22   2.0000      -0.925501       -25.1842
  23   2.0000      -0.907395       -24.6915
  24   2.0000      -0.887854       -24.1597
  25   2.0000      -0.861653       -23.4468
  26   2.0000      -0.816167       -22.2090
  27   2.0000      -0.797291       -21.6954
  28   2.0000      -0.794310       -21.6143
  29   2.0000      -0.755975       -20.5711
  30   2.0000      -0.751434       -20.4476
  31   2.0000      -0.738175       -20.0868
  32   2.0000      -0.670518       -18.2457
  33   2.0000      -0.659206       -17.9379
  34   2.0000      -0.646812       -17.6006
  35   2.0000      -0.625568       -17.0226
  36   2.0000      -0.612373       -16.6635
  37   2.0000      -0.605981       -16.4896
  38   2.0000      -0.572406       -15.5760
  39   2.0000      -0.543390       -14.7864
  40   2.0000      -0.535337       -14.5673
  41   2.0000      -0.516176       -14.0459
  42   2.0000      -0.513197       -13.9648
  43   2.0000      -0.504446       -13.7267
  44   2.0000      -0.495843       -13.4926
  45   2.0000      -0.478844       -13.0300
  46   2.0000      -0.473726       -12.8908
  47   2.0000      -0.458467       -12.4755
  48   2.0000      -0.450494       -12.2586
  49   2.0000      -0.448684       -12.2093
  50   2.0000      -0.441494       -12.0137
  51   2.0000      -0.435623       -11.8539
  52   2.0000      -0.421026       -11.4567
  53   2.0000      -0.408347       -11.1117
  54   2.0000      -0.400654       -10.9024
  55   2.0000      -0.394311       -10.7298
  56   2.0000      -0.389806       -10.6072
  57   2.0000      -0.380655       -10.3582
  58   2.0000      -0.372723       -10.1423
  59   2.0000      -0.370507       -10.0820
  60   2.0000      -0.366307        -9.9677
  61   2.0000      -0.358640        -9.7591
  62   2.0000      -0.350983        -9.5507
  63   2.0000      -0.344127        -9.3642
  64   2.0000      -0.331102        -9.0097
  65   2.0000      -0.299517        -8.1503
  66   2.0000      -0.285036        -7.7562
  67   2.0000      -0.279810        -7.6140
  68   2.0000      -0.263577        -7.1723
  69   2.0000      -0.249323        -6.7844
  70   2.0000      -0.219231        -5.9656
  71   0.0000      -0.051633        -1.4050
  72   0.0000      -0.041811        -1.1377
  73   0.0000      -0.022623        -0.6156
  74   0.0000      -0.000325        -0.0089
  75   0.0000       0.003947         0.1074

MULLIKEN ATOMIC CHARGES
-----------------------
   0 C :    0.035624
   1 C :    0.041472
   2 C :   -0.042586
   3 C :   -0.005640
   4 C :   -0.008480
   5 C :   -0.044970
   6 H :    0.019062
   7 H :    0.023847
   8 H :    0.024481
   9 H :    0.019071
  10 C :   -0.069442
  11 C :   -0.063951
  12 C :    0.083966
  13 C :   -0.054320
  14 C :   -0.024420
  15 C :    0.010482
  16 C :   -0.038418
  17 C :    0.038047
  18 C :   -0.019334
  19 C :    0.031194
  20 C :   -0.137913
  21 C :    0.005923
  22 H :   -0.009994
  23 H :   -0.004219
  24 H :    0.030017
  25 H :    0.020378
  26 H :    0.012937
  27 H :    0.028965
  28 H :    0.029750
  29 C :   -0.008683
  30 H :    0.027552
  31 N :   -0.048342
  32 N :   -0.155486
  33 H :    0.126283
  34 H :    0.127149
Sum of atomic charges:   -0.0000000

LOEWDIN ATOMIC CHARGES
----------------------
   0 C :   -0.011784
   1 C :   -0.021749
   2 C :   -0.021012
   3 C :   -0.028864
   4 C :   -0.031368
   5 C :   -0.022046
   6 H :    0.037393
   7 H :    0.036580
   8 H :    0.036937
   9 H :    0.036517
  10 C :   -0.020517
  11 C :   -0.074325
  12 C :    0.021645
  13 C :   -0.076020
  14 C :   -0.018867
  15 C :   -0.054928
  16 C :   -0.017787
  17 C :    0.006239
  18 C :   -0.024500
  19 C :   -0.000665
  20 C :   -0.076091
  21 C :    0.004543
  22 H :    0.027865
  23 H :    0.028989
  24 H :    0.044986
  25 H :    0.036589
  26 H :    0.034176
  27 H :    0.042454
  28 H :    0.041019
  29 C :   -0.016472
  30 H :    0.044696
  31 N :   -0.076128
  32 N :   -0.037455
  33 H :    0.074735
  34 H :    0.075211

  Mayer bond orders larger than 0.100000
B(  0-C ,  1-C ) :   1.3979 B(  0-C ,  2-C ) :   1.3854 B(  0-C , 10-C ) :   0.9902
B(  1-C ,  5-C ) :   1.3791 B(  1-C , 16-C ) :   0.9807 B(  2-C ,  3-C ) :   1.3709
B(  2-C ,  6-H ) :   0.9916 B(  3-C ,  4-C ) :   1.3637 B(  3-C ,  7-H ) :   0.9929
B(  4-C ,  5-C ) :   1.3764 B(  4-C ,  8-H ) :   0.9926 B(  5-C ,  9-H ) :   0.9910
B( 10-C , 11-C ) :   1.3812 B( 10-C , 15-C ) :   1.3710 B( 11-C , 12-C ) :   1.2963
B( 11-C , 22-H ) :   0.9954 B( 12-C , 13-C ) :   1.3205 B( 12-C , 32-N ) :   1.2010
B( 13-C , 14-C ) :   1.3903 B( 13-C , 23-H ) :   0.9956 B( 14-C , 15-C ) :   1.3606
B( 14-C , 25-H ) :   0.9875 B( 15-C , 26-H ) :   0.9959 B( 16-C , 17-C ) :   1.3792
B( 16-C , 21-C ) :   1.3693 B( 17-C , 18-C ) :   1.3751 B( 17-C , 27-H ) :   0.9899
B( 18-C , 19-C ) :   1.3618 B( 18-C , 28-H ) :   0.9905 B( 19-C , 20-C ) :   1.3690
B( 19-C , 24-H ) :   0.9963 B( 20-C , 21-C ) :   1.3454 B( 20-C , 29-C ) :   1.0499
B( 21-C , 30-H ) :   0.9983 B( 29-C , 31-N ) :   2.9458 B( 32-N , 33-H ) :   0.9523
B( 32-N , 34-H ) :   0.9505

--------------------------------------------------------------------------------------------------------
      SOC CORRECTED ABSORPTION SPECTRUM VIA TRANSITION ELECTRIC DIPOLE MOMENTS
--------------------------------------------------------------------------------------------------------
      Transition         Energy     Energy  Wavelength fosc(D2)      D2       |DX|      |DY|      |DZ|
                          (eV)      (cm-1)    (nm)                 (au**2)    (au)      (au)      (au)
--------------------------------------------------------------------------------------------------------
  0-1.0A  ->  1-3.0A    3.384533   27298.1   366.3   0.000000000   0.00000   0.00000   0.00002   0.00001
  0-1.0A  ->  2-3.0A    3.384533   27298.1   366.3   0.000000000   0.00000   0.00002   0.00001   0.00000
  0-1.0A  ->  3-3.0A    3.384533   27298.1   366.3   0.000000000   0.00000   0.00002   0.00001   0.00000
  0-1.0A  ->  4-3.0A    3.537811   28534.4   350.5   0.000000000   0.00000   0.00004   0.00002   0.00002
  0-1.0A  ->  5-3.0A    3.537811   28534.4   350.5   0.000000000   0.00000   0.00002   0.00001   0.00000
  0-1.0A  ->  6-3.0A    3.537811   28534.4   350.5   0.000000000   0.00000   0.00003   0.00001   0.00000
  0-1.0A  ->  7-3.0A    3.774172   30440.8   328.5   0.000000001   0.00000   0.00009   0.00004   0.00006
  0-1.0A  ->  8-3.0A    3.774172   30440.8   328.5   0.000000000   0.00000   0.00001   0.00000   0.00002
  0-1.0A  ->  9-3.0A    3.774172   30440.8   328.5   0.000000000   0.00000   0.00004   0.00002   0.00000
  0-1.0A  -> 10-1.0A    3.869419   31209.0   320.4   0.003057256   0.03225   0.06353   0.01558   0.16724
  0-1.0A  -> 11-1.0A    4.145866   33438.7   299.1   0.070595883   0.69503   0.76578   0.30863   0.11563
  0-1.0A  -> 12-1.0A    4.618366   37249.6   268.5   0.021680495   0.19161   0.10863   0.26932   0.32753

FINAL SINGLE POINT ENERGY      -840.559493384702

DIPOLE MOMENT
-------------

Method             : SCF
Type of density    : Electron Density
Multiplicity       :   1
Irrep              :   0
Energy             :  -840.6838726991259136 Eh
Relativity type    :
Basis              : AO
                                X                 Y                 Z
Electronic contribution:      9.537573822       1.375239730      -3.223171445
Nuclear contribution   :    -11.502562564      -1.501887036       4.898852976
                        -----------------------------------------
Total Dipole Moment    :     -1.964988743      -0.126647306       1.675681531
                        -----------------------------------------
Magnitude (a.u.)       :      2.585561620
Magnitude (Debye)      :      6.571975355

Rotational constants in cm-1:             0.014380             0.007600             0.005555
Rotational constants in MHz :           431.105879           227.855337           166.535523

                             ****ORCA TERMINATED NORMALLY****
TOTAL RUN TIME: 0 days 1 hours 27 minutes 46 seconds 327 msec
