                         Program Version 6.0.1  -  RELEASE   -
|  1> !B3LYP cc-pvTz
|  2> %TDDFT
|  3> NROOTS  50
|  4> TPrint 0.00001
|  5> TDA TRUE
|  6> END
|  7> * xyzfile 0 1 CH3Cl.xyz
|  8> %scf
|  9> MaxIter 100
| 10> end
| 11>
| 12>                          ****END OF INPUT****

CARTESIAN COORDINATES (ANGSTROEM)
---------------------------------
  C      0.006492    0.006492    0.006492
  Cl     1.043081    1.043081    1.043081
  H     -0.611794    0.650772   -0.611794
  H      0.650772   -0.611794   -0.611794
  H     -0.611794   -0.611794    0.650772

 Total Charge           Charge          ....    0
 Multiplicity           Mult            ....    1
 Number of Electrons    NEL             ....   26
 Basis Dimension        Dim             ....  106

ORBITAL ENERGIES
----------------

  NO   OCC          E(Eh)            E(eV)
   0   2.0000    -101.545845     -2763.2029
   1   2.0000     -10.227869      -278.3145
   2   2.0000      -9.451024      -257.1754
   3   2.0000      -7.214182      -196.3079
   4   2.0000      -7.205199      -196.0634
   5   2.0000      -7.205199      -196.0634
   6   2.0000      -0.848266       -23.0825
   7   2.0000      -0.678221       -18.4553
   8   2.0000      -0.450905       -12.2697
   9   2.0000      -0.450893       -12.2694
  10   2.0000      -0.411271       -11.1912
  11   2.0000      -0.297531        -8.0962
  12   2.0000      -0.297529        -8.0962
  13   0.0000       0.013834         0.3765
  14   0.0000       0.053983         1.4689
  15   0.0000       0.097058         2.6411
  16   0.0000       0.097066         2.6413
  17   0.0000       0.223286         6.0759

MULLIKEN ATOMIC CHARGES
-----------------------
   0 C :   -0.207953
   1 Cl:   -0.166265
   2 H :    0.124759
   3 H :    0.124738
   4 H :    0.124722
Sum of atomic charges:    0.0000000

LOEWDIN ATOMIC CHARGES
----------------------
   0 C :   -0.054731
   1 Cl:    0.177161
   2 H :   -0.040799
   3 H :   -0.040814
   4 H :   -0.040816

  Mayer bond orders larger than 0.100000
B(  0-C ,  1-Cl) :   1.0011 B(  0-C ,  2-H ) :   0.9634 B(  0-C ,  3-H ) :   0.9634
B(  0-C ,  4-H ) :   0.9634

----------------------------------------------------------------------------------------------------
                     ABSORPTION SPECTRUM VIA TRANSITION ELECTRIC DIPOLE MOMENTS
----------------------------------------------------------------------------------------------------
     Transition      Energy     Energy  Wavelength fosc(D2)      D2        DX        DY        DZ
                      (eV)      (cm-1)    (nm)                 (au**2)    (au)      (au)      (au)
----------------------------------------------------------------------------------------------------
  0-1A  ->  1-1A    7.202146   58089.2   172.1   0.002007351   0.01138  -0.07224  -0.00596   0.07825
  0-1A  ->  2-1A    7.202191   58089.6   172.1   0.002007315   0.01138  -0.04863   0.08687  -0.03827
  0-1A  ->  3-1A    8.406752   67805.0   147.5   0.000000031   0.00000  -0.00026   0.00001   0.00029
  0-1A  ->  4-1A    8.406784   67805.3   147.5   0.000000032   0.00000   0.00019  -0.00029   0.00018
  0-1A  ->  5-1A    9.644012   77784.2   128.6   0.000000047   0.00000   0.00035  -0.00009  -0.00026
  0-1A  ->  6-1A    9.695928   78202.9   127.9   0.007458190   0.03140  -0.10792  -0.02918   0.13747
  0-1A  ->  7-1A    9.695943   78203.1   127.9   0.007459092   0.03140   0.09646  -0.14145   0.04570
  0-1A  ->  8-1A    9.797233   79020.0   126.6   0.075067920   0.31275   0.32284   0.32300   0.32279
  0-1A  ->  9-1A   11.032356   88982.0   112.4   0.408915179   1.51289   0.71012   0.71021   0.71009
  0-1A  -> 10-1A   11.282670   91000.9   109.9   0.021905655   0.07925   0.18639   0.02313  -0.20970
  0-1A  -> 11-1A   11.282982   91003.4   109.9   0.021913516   0.07927  -0.13460   0.22856  -0.09443
  0-1A  -> 12-1A   12.005569   96831.5   103.3   0.441891958   1.50236  -0.70768  -0.70757  -0.70774
  0-1A  -> 13-1A   12.418567  100162.5    99.8   0.114333072   0.37579   0.40553   0.05148  -0.45682
  0-1A  -> 14-1A   12.418849  100164.8    99.8   0.114270259   0.37557  -0.29327   0.49785  -0.20424
  0-1A  -> 15-1A   12.671627  102203.6    97.8   0.059465347   0.19155   0.21989  -0.35390   0.13398
  0-1A  -> 16-1A   12.671788  102204.9    97.8   0.059357731   0.19120   0.28142   0.04958  -0.33097
  0-1A  -> 17-1A   12.931235  104297.5    95.9   0.052610990   0.16607  -0.29355   0.01121   0.28243
  0-1A  -> 18-1A   12.931261  104297.7    95.9   0.052612679   0.16607  -0.15659   0.33255  -0.17596
  0-1A  -> 19-1A   13.484470  108759.6    91.9   0.000000247   0.00000  -0.00067   0.00016   0.00052
  0-1A  -> 20-1A   13.501965  108900.7    91.8   0.000000257   0.00000  -0.00070   0.00018   0.00051
  0-1A  -> 21-1A   13.562233  109386.8    91.4   0.051977900   0.15643   0.24533   0.05907  -0.30456
  0-1A  -> 22-1A   13.562251  109386.9    91.4   0.051962677   0.15639  -0.21003   0.31732  -0.10762
  0-1A  -> 23-1A   13.886247  112000.1    89.3   0.206284186   0.60635   0.62459  -0.20965  -0.41507
  0-1A  -> 24-1A   13.886259  112000.2    89.3   0.206254375   0.60626  -0.11823   0.60046  -0.48138
  0-1A  -> 25-1A   14.027550  113139.8    88.4   0.380109698   1.10604  -0.60728  -0.60696  -0.60732
  0-1A  -> 26-1A   14.572633  117536.2    85.1   0.038342184   0.10739   0.18920   0.18917   0.18923
  0-1A  -> 27-1A   15.038484  121293.6    82.4   0.064016782   0.17375   0.28589   0.01699  -0.30287
  0-1A  -> 28-1A   15.038510  121293.8    82.4   0.064013370   0.17374   0.18466  -0.33992   0.15524
  0-1A  -> 29-1A   16.282142  131324.3    76.1   0.000000000   0.00000   0.00002  -0.00000  -0.00002
  0-1A  -> 30-1A   16.327335  131688.8    75.9   0.000443310   0.00111   0.01877  -0.02641   0.00765
  0-1A  -> 31-1A   16.327342  131688.9    75.9   0.000441687   0.00110   0.01962   0.00643  -0.02604
  0-1A  -> 32-1A   16.411224  132365.5    75.5   0.031169802   0.07752   0.16076   0.16076   0.16074
  0-1A  -> 33-1A   16.556971  133541.0    74.9   0.002285348   0.00563  -0.04795  -0.00901   0.05704
  0-1A  -> 34-1A   16.557123  133542.2    74.9   0.002287554   0.00564  -0.03817   0.06062  -0.02252
  0-1A  -> 35-1A   16.781293  135350.3    73.9   0.006160542   0.01498   0.08145   0.00945  -0.09089
  0-1A  -> 36-1A   16.781560  135352.4    73.9   0.006153281   0.01497   0.05783  -0.09950   0.04149
  0-1A  -> 37-1A   17.099052  137913.2    72.5   0.000000000   0.00000   0.00001  -0.00000  -0.00000
  0-1A  -> 38-1A   17.247472  139110.3    71.9   0.187392303   0.44347   0.38450   0.38441   0.38453
  0-1A  -> 39-1A   17.392199  140277.6    71.3   0.001841915   0.00432   0.03468   0.01816  -0.05282
  0-1A  -> 40-1A   17.392213  140277.7    71.3   0.001838281   0.00431   0.04095  -0.05047   0.00951
  0-1A  -> 41-1A   17.432270  140600.8    71.1   0.000000001   0.00000  -0.00003   0.00000   0.00003
  0-1A  -> 42-1A   17.868740  144121.1    69.4   0.094457516   0.21577   0.26813   0.26841   0.26801
  0-1A  -> 43-1A   18.032724  145443.7    68.8   0.237121574   0.53672   0.42316   0.42236   0.42341
  0-1A  -> 44-1A   18.141352  146319.9    68.3   0.146292527   0.32915  -0.35492  -0.08777   0.44213
  0-1A  -> 45-1A   18.141428  146320.5    68.3   0.146303463   0.32917  -0.30550   0.46064  -0.15380
  0-1A  -> 46-1A   18.754117  151262.2    66.1   0.141092892   0.30708   0.32000   0.31977   0.32005
  0-1A  -> 47-1A   19.060390  153732.4    65.0   0.063229294   0.13540   0.24163   0.03400  -0.27543
  0-1A  -> 48-1A   19.060574  153733.9    65.0   0.063312278   0.13558   0.17858  -0.29891   0.11976
  0-1A  -> 49-1A   19.104612  154089.1    64.9   0.001991872   0.00426   0.03782   0.03727   0.03790
  0-1A  -> 50-1A   19.273439  155450.8    64.3   0.000000069   0.00000  -0.00030   0.00006   0.00023

FINAL SINGLE POINT ENERGY      -499.801805695659

DIPOLE MOMENT
-------------

Method             : SCF
Type of density    : Electron Density
Multiplicity       :   1
Irrep              :   0
Energy             :  -500.0664796930170155 Eh
Relativity type    :
Basis              : AO
                                X                 Y                 Z
Electronic contribution:      2.557220386       2.557392486       2.557185719
Nuclear contribution   :     -3.001283672      -3.001283672      -3.001283672
                        -----------------------------------------
Total Dipole Moment    :     -0.444063285      -0.443891186      -0.444097953
                        -----------------------------------------
Magnitude (a.u.)       :      0.769060841
Magnitude (Debye)      :      1.954797308

Rotational constants in cm-1:             5.245637             0.436954             0.436954
Rotational constants in MHz :        157260.226326         13099.545846         13099.545846

                             ****ORCA TERMINATED NORMALLY****
TOTAL RUN TIME: 0 days 0 hours 0 minutes 11 seconds 312 msec
