                         Program Version 6.0.1  -  RELEASE   -
|  1> !def2-SVP PBE0 SARC/J def2-SVP/C Opt
|  2> * xyzfile 0 1 chfclbr.xyz
|  3> %scf
|  4> MaxIter 100
|  5> end
|  6> %rel
|  7> method DKH
|  8> order 2
|  9> picturechange 2
| 10> end
| 11> $new_job
| 12> !def2-SVP PBE0 RI-SOMF(1X) SARC/J def2-SVP/C
| 13> %TDDFT
| 14> NROOTS  3
| 15> DOSOC   TRUE
| 16> TDA     TRUE
| 17> TRIPLETS TRUE
| 18> END
| 19> * xyzfile 0 1 chfclbr.xyz
| 20> %scf
| 21> MaxIter 100
| 22> end
| 23> %rel
| 24> method DKH
| 25> order 2
| 26> picturechange 2
| 27> SOCType 3
| 28> SOCFlags 1,3,3,0
| 29> SOCMaxCenter 4
| 30> end
| 31>
| 32>                          ****END OF INPUT****
 Total Charge           Charge          ....    0
 Multiplicity           Mult            ....    1
 Number of Electrons    NEL             ....   68
FINAL SINGLE POINT ENERGY     -3194.223039150592
FINAL SINGLE POINT ENERGY     -3194.768517269053
FINAL SINGLE POINT ENERGY     -3195.187167448385
FINAL SINGLE POINT ENERGY     -3195.640265120423
FINAL SINGLE POINT ENERGY     -3196.019055454362
FINAL SINGLE POINT ENERGY     -3196.234679557083
FINAL SINGLE POINT ENERGY     -3196.339326626550
FINAL SINGLE POINT ENERGY     -3196.423708513199
FINAL SINGLE POINT ENERGY     -3196.476321606616
FINAL SINGLE POINT ENERGY     -3196.504432750407
FINAL SINGLE POINT ENERGY     -3196.508429573690
FINAL SINGLE POINT ENERGY     -3196.508553281156
FINAL SINGLE POINT ENERGY     -3196.508596169384
FINAL SINGLE POINT ENERGY     -3196.508605763368
FINAL SINGLE POINT ENERGY     -3196.508610771650
FINAL SINGLE POINT ENERGY     -3196.508619850445
FINAL SINGLE POINT ENERGY     -3196.508629211614
FINAL SINGLE POINT ENERGY     -3196.508634292490
                    ***********************HURRAY********************
FINAL SINGLE POINT ENERGY     -3196.508635260746

CARTESIAN COORDINATES (ANGSTROEM)
---------------------------------
  C      0.137342    0.230907    0.092035
  H      0.773073    0.836968    0.750214
  F     -0.625720    1.019548   -0.663091
  Cl     1.177060   -0.758233   -0.930305
  Br    -0.984997   -0.852433    1.227904

 Multiplicity           Mult            ....    1
 Number of Electrons    NEL             ....   68
 Basis Dimension        Dim             ....   83

ORBITAL ENERGIES
----------------

  NO   OCC          E(Eh)            E(eV)
   0   2.0000    -489.229889    -13312.6221
   1   2.0000    -102.086999     -2777.9285
   2   2.0000     -64.405617     -1752.5659
   3   2.0000     -57.212815     -1556.8398
   4   2.0000     -57.210223     -1556.7693
   5   2.0000     -57.210183     -1556.7682
   6   2.0000     -24.839177      -675.9084
   7   2.0000     -10.433262      -283.9035
   8   2.0000      -9.628728      -262.0110
   9   2.0000      -9.047233      -246.1877
  10   2.0000      -7.311069      -198.9443
  11   2.0000      -7.300854      -198.6663
  12   2.0000      -7.300558      -198.6583
  13   2.0000      -6.712851      -182.6660
  14   2.0000      -6.699277      -182.2966
  15   2.0000      -6.699039      -182.2901
  16   2.0000      -2.660221       -72.3883
  17   2.0000      -2.656423       -72.2850
  18   2.0000      -2.656250       -72.2802
  19   2.0000      -2.645250       -71.9809
  20   2.0000      -2.645243       -71.9807
  21   2.0000      -1.286003       -34.9939
  22   2.0000      -0.919555       -25.0224
  23   2.0000      -0.841513       -22.8987
  24   2.0000      -0.692317       -18.8389
  25   2.0000      -0.583272       -15.8716
  26   2.0000      -0.542726       -14.7683
  27   2.0000      -0.535276       -14.5656
  28   2.0000      -0.422395       -11.4939
  29   2.0000      -0.408905       -11.1269
  30   2.0000      -0.356900        -9.7117
  31   2.0000      -0.337410        -9.1814
  32   2.0000      -0.316691        -8.6176
  33   2.0000      -0.309470        -8.4211
  34   0.0000      -0.020599        -0.5605
  35   0.0000       0.043391         1.1807
  36   0.0000       0.080818         2.1992
  37   0.0000       0.118192         3.2162
  38   0.0000       0.307157         8.3582

MULLIKEN ATOMIC CHARGES
-----------------------
   0 C :    0.199971
   1 H :    0.122008
   2 F :   -0.172792
   3 Cl:   -0.088306
   4 Br:   -0.060881
Sum of atomic charges:    0.0000000

LOEWDIN ATOMIC CHARGES
----------------------
   0 C :   -0.072892
   1 H :    0.020928
   2 F :   -0.073878
   3 Cl:    0.081969
   4 Br:    0.043873

  Mayer bond orders larger than 0.100000
B(  0-C ,  1-H ) :   0.9347 B(  0-C ,  2-F ) :   1.0538 B(  0-C ,  3-Cl) :   1.0550
B(  0-C ,  4-Br) :   1.0165

--------------------------------------------------------------------------------------------------------
      SOC CORRECTED ABSORPTION SPECTRUM VIA TRANSITION ELECTRIC DIPOLE MOMENTS
--------------------------------------------------------------------------------------------------------
      Transition         Energy     Energy  Wavelength fosc(D2)      D2       |DX|      |DY|      |DZ|
                          (eV)      (cm-1)    (nm)                 (au**2)    (au)      (au)      (au)
--------------------------------------------------------------------------------------------------------
  0-1.0A  ->  1-3.0A    5.366507   43283.8   231.0   0.000001527   0.00001   0.00190   0.00018   0.00282
  0-1.0A  ->  2-3.0A    5.367665   43293.1   231.0   0.000012590   0.00010   0.00539   0.00607   0.00546
  0-1.0A  ->  3-3.0A    5.417711   43696.8   228.8   0.000026080   0.00020   0.00290   0.00771   0.01134
  0-1.0A  ->  4-2.9A    5.567340   44903.6   222.7   0.000183084   0.00134   0.02696   0.00321   0.02459
  0-1.0A  ->  5-3.0A    5.650257   45572.4   219.4   0.000000212   0.00000   0.00066   0.00046   0.00094
  0-1.0A  ->  6-3.0A    5.664785   45689.6   218.9   0.000225486   0.00162   0.02601   0.01851   0.02461
  0-1.0A  ->  7-1.7A    6.264861   50529.5   197.9   0.004407284   0.02871   0.12670   0.00648   0.11233
  0-1.0A  ->  8-2.2A    6.322578   50995.0   196.1   0.001299805   0.00839   0.03226   0.04225   0.07460
  0-1.0A  ->  9-3.0A    6.386881   51513.7   194.1   0.000000778   0.00000   0.00164   0.00076   0.00131
  0-1.0A  -> 10-2.4A    6.428747   51851.3   192.9   0.001976405   0.01255   0.07747   0.01267   0.07991
  0-1.0A  -> 11-1.8A    6.470361   52187.0   191.6   0.000706808   0.00446   0.00300   0.04268   0.05126
  0-1.0A  -> 12-1.0A    7.246706   58448.6   171.1   0.033113479   0.18651   0.28259   0.16934   0.27924

FINAL SINGLE POINT ENERGY     -3196.311419759766

DIPOLE MOMENT
-------------

Method             : SCF
Type of density    : Electron Density
Multiplicity       :   1
Irrep              :   0
Energy             : -3196.5086352698049268 Eh
Relativity type    :
Basis              : AO
                                X                 Y                 Z
Electronic contribution:     -5.226672367      -3.368428483       5.232019962
Nuclear contribution   :      5.526395307       3.586390503      -4.916202470
                        -----------------------------------------
Total Dipole Moment    :      0.299722940       0.217962020       0.315817493
                        -----------------------------------------
Magnitude (a.u.)       :      0.486910640
Magnitude (Debye)      :      1.237628492

Rotational constants in cm-1:             0.215927             0.066943             0.052751
Rotational constants in MHz :          6473.313999          2006.887469          1581.421689

                             ****ORCA TERMINATED NORMALLY****
TOTAL RUN TIME: 0 days 0 hours 7 minutes 19 seconds 696 msec
