                         Program Version 6.0.1  -  RELEASE   -
|  1> !B3LYP cc-PVTZ
|  2> * xyzfile 1 2 H2CO.xyz
|  3> %scf
|  4> MaxIter 100
|  5> end
|  6>
|  7>                          ****END OF INPUT****

CARTESIAN COORDINATES (ANGSTROEM)
---------------------------------
  C     -0.428444   -1.070959    0.000010
  O      0.770933   -1.070959   -0.000017
  H     -1.017011   -0.133397    0.000004
  H     -1.017011   -2.008522    0.000043

 Total Charge           Charge          ....    1
 Multiplicity           Mult            ....    2
 Number of Electrons    NEL             ....   15
 Basis Dimension        Dim             ....   88

ORBITAL ENERGIES
----------------
                 SPIN UP ORBITALS
  NO   OCC          E(Eh)            E(eV)
   0   1.0000     -19.607183      -533.5386
   1   1.0000     -10.634977      -289.3924
   2   1.0000      -1.489895       -40.5421
   3   1.0000      -0.996296       -27.1106
   4   1.0000      -0.889632       -24.2081
   5   1.0000      -0.846554       -23.0359
   6   1.0000      -0.791773       -21.5452
   7   1.0000      -0.694186       -18.8898
   8   0.0000      -0.394941       -10.7469
   9   0.0000      -0.194927        -5.3042
  10   0.0000      -0.137177        -3.7328
  11   0.0000      -0.132032        -3.5928
  12   0.0000       0.006233         0.1696

                 SPIN DOWN ORBITALS
  NO   OCC          E(Eh)            E(eV)
   0   1.0000     -19.583834      -532.9032
   1   1.0000     -10.636650      -289.4380
   2   1.0000      -1.444183       -39.2982
   3   1.0000      -0.970958       -26.4211
   4   1.0000      -0.825230       -22.4556
   5   1.0000      -0.821855       -22.3638
   6   1.0000      -0.772184       -21.0122
   7   0.0000      -0.516658       -14.0590
   8   0.0000      -0.389897       -10.6096
   9   0.0000      -0.187365        -5.0985
  10   0.0000      -0.126287        -3.4364
  11   0.0000      -0.125610        -3.4180

MULLIKEN ATOMIC CHARGES AND SPIN POPULATIONS
--------------------------------------------
   0 C :    0.280071   -0.081740
   1 O :    0.215354    0.815544
   2 H :    0.252288    0.133098
   3 H :    0.252287    0.133098
Sum of atomic charges         :    1.0000000

LOEWDIN ATOMIC CHARGES AND SPIN POPULATIONS
-------------------------------------------
   0 C :    0.237889    0.122232
   1 O :    0.626838    0.716064
   2 H :    0.067636    0.080852
   3 H :    0.067636    0.080852

  Mayer bond orders larger than 0.100000
B(  0-C ,  1-O ) :   2.0294 B(  0-C ,  2-H ) :   0.8339 B(  0-C ,  3-H ) :   0.8339

FINAL SINGLE POINT ENERGY      -114.095649732184

DIPOLE MOMENT
-------------

Method             : SCF
Type of density    : Electron Density
Multiplicity       :   2
Irrep              :   0
Energy             :  -114.0956497321842278 Eh
Relativity type    :
Basis              : AO
                                X                 Y                 Z
Electronic contribution:      0.835313503      -0.000000011      -0.000018987
Nuclear contribution   :     -2.220467621      -0.000000096       0.000050506
                        -----------------------------------------
Total Dipole Moment    :     -1.385154119      -0.000000107       0.000031518
                        -----------------------------------------
Magnitude (a.u.)       :      1.385154119
Magnitude (Debye)      :      3.520781970

Rotational constants in cm-1:             9.512746             1.304810             1.147424
Rotational constants in MHz :        285184.948015         39117.227378         34398.919597

                             ****ORCA TERMINATED NORMALLY****
TOTAL RUN TIME: 0 days 0 hours 0 minutes 3 seconds 232 msec
