                         Program Version 6.0.1  -  RELEASE   -
|  1> !B3LYP def2-TZVP
|  2> %TDDFT
|  3> NROOTS  50
|  4> TPrint 0.000001
|  5> TDA TRUE
|  6> END
|  7> * xyzfile 0 1 H2CO.xyz
|  8> %scf
|  9> MaxIter 100
| 10> end
| 11>
| 12>                          ****END OF INPUT****

CARTESIAN COORDINATES (ANGSTROEM)
---------------------------------
  C     -0.428502   -1.070959    0.000010
  O      0.770237   -1.070959   -0.000003
  H     -1.016634   -0.132124   -0.000003
  H     -1.016634   -2.009794    0.000036

 Total Charge           Charge          ....    0
 Multiplicity           Mult            ....    1
 Number of Electrons    NEL             ....   16
 Basis Dimension        Dim             ....   74

ORBITAL ENERGIES
----------------

  NO   OCC          E(Eh)            E(eV)
   0   2.0000     -19.146604      -521.0056
   1   2.0000     -10.272378      -279.5256
   2   2.0000      -1.069270       -29.0963
   3   2.0000      -0.639030       -17.3889
   4   2.0000      -0.501974       -13.6594
   5   2.0000      -0.458920       -12.4878
   6   2.0000      -0.409238       -11.1359
   7   2.0000      -0.276280        -7.5179
   8   0.0000      -0.055235        -1.5030
   9   0.0000       0.054073         1.4714
  10   0.0000       0.108811         2.9609
  11   0.0000       0.112501         3.0613
  12   0.0000       0.205575         5.5940

MULLIKEN ATOMIC CHARGES
-----------------------
   0 C :    0.074036
   1 O :   -0.236441
   2 H :    0.081202
   3 H :    0.081202
Sum of atomic charges:    0.0000000

LOEWDIN ATOMIC CHARGES
----------------------
   0 C :   -0.277248
   1 O :    0.105098
   2 H :    0.086075
   3 H :    0.086075

  Mayer bond orders larger than 0.100000
B(  0-C ,  1-O ) :   2.1023 B(  0-C ,  2-H ) :   0.9180 B(  0-C ,  3-H ) :   0.9180

----------------------------------------------------------------------------------------------------
                     ABSORPTION SPECTRUM VIA TRANSITION ELECTRIC DIPOLE MOMENTS
----------------------------------------------------------------------------------------------------
     Transition      Energy     Energy  Wavelength fosc(D2)      D2        DX        DY        DZ
                      (eV)      (cm-1)    (nm)                 (au**2)    (au)      (au)      (au)
----------------------------------------------------------------------------------------------------
  0-1A  ->  1-1A    4.039005   32576.8   307.0   0.000000000   0.00000   0.00000   0.00000  -0.00000
  0-1A  ->  2-1A    7.924339   63914.1   156.5   0.109846303   0.56580   0.00000   0.75220  -0.00002
  0-1A  ->  3-1A    9.112818   73499.8   136.1   0.034441727   0.15427   0.00000   0.39277  -0.00001
  0-1A  ->  4-1A    9.200573   74207.6   134.8   0.000560237   0.00249  -0.00000  -0.00000  -0.04985
  0-1A  ->  5-1A    9.435408   76101.7   131.4   0.018036219   0.07802   0.27933  -0.00000  -0.00000
  0-1A  ->  6-1A   10.188150   82173.0   121.7   0.000000000   0.00000   0.00000  -0.00000  -0.00000
  0-1A  ->  7-1A   10.633297   85763.3   116.6   0.402137229   1.54365  -1.24244   0.00000   0.00001
  0-1A  ->  8-1A   11.364651   91662.1   109.1   0.007855500   0.02821  -0.00000  -0.00000  -0.16797
  0-1A  ->  9-1A   11.694176   94319.9   106.0   0.000000000   0.00000   0.00000   0.00000   0.00000
  0-1A  -> 10-1A   11.965899   96511.5   103.6   0.028240668   0.09633  -0.00000   0.31037  -0.00001
  0-1A  -> 11-1A   12.799580  103235.6    96.9   0.088217631   0.28132   0.00001   0.00001   0.53040
  0-1A  -> 12-1A   12.851251  103652.3    96.5   0.000000000   0.00000   0.00000   0.00000  -0.00001
  0-1A  -> 13-1A   12.917006  104182.7    96.0   0.028842912   0.09114  -0.30190  -0.00000   0.00000
  0-1A  -> 14-1A   13.949345  112509.1    88.9   0.040427155   0.11829   0.34394  -0.00001  -0.00000
  0-1A  -> 15-1A   13.973953  112707.5    88.7   0.262723179   0.76740   0.00000   0.87601  -0.00002
  0-1A  -> 16-1A   14.279399  115171.1    86.8   0.433159797   1.23817   1.11273   0.00000  -0.00001
  0-1A  -> 17-1A   14.371405  115913.2    86.3   0.115899841   0.32917   0.00001  -0.57374   0.00001
  0-1A  -> 18-1A   15.051951  121402.2    82.4   0.013113071   0.03556  -0.00000  -0.00000  -0.18857
  0-1A  -> 19-1A   15.271522  123173.1    81.2   0.009157743   0.02448   0.15645  -0.00000  -0.00000
  0-1A  -> 20-1A   15.358318  123873.2    80.7   0.107300341   0.28517   0.00000   0.53401  -0.00001
  0-1A  -> 21-1A   15.811126  127525.3    78.4   0.376214227   0.97121   0.00001   0.00002   0.98550
  0-1A  -> 22-1A   16.448977  132670.0    75.4   0.006271535   0.01556  -0.12475  -0.00000   0.00000
  0-1A  -> 23-1A   16.593842  133838.4    74.7   0.000382649   0.00094  -0.00000   0.03068  -0.00000
  0-1A  -> 24-1A   16.710605  134780.1    74.2   0.000000000   0.00000   0.00000   0.00000   0.00000
  0-1A  -> 25-1A   16.812448  135601.6    73.7   0.157280940   0.38184  -0.00001  -0.00001  -0.61794
  0-1A  -> 26-1A   16.921892  136484.3    73.3   0.034030315   0.08208  -0.28650   0.00000   0.00000
  0-1A  -> 27-1A   17.603157  141979.1    70.4   0.000366958   0.00085  -0.00000  -0.02917   0.00000
  0-1A  -> 28-1A   17.680868  142605.8    70.1   0.000000000   0.00000  -0.00000  -0.00000  -0.00000
  0-1A  -> 29-1A   18.147493  146369.4    68.3   0.026122739   0.05875  -0.00000   0.24239  -0.00001
  0-1A  -> 30-1A   18.363449  148111.2    67.5   0.043956717   0.09770  -0.00000  -0.31258   0.00001
  0-1A  -> 31-1A   18.639551  150338.1    66.5   0.243501832   0.53322  -0.73022  -0.00000   0.00001
  0-1A  -> 32-1A   18.699076  150818.2    66.3   0.000361822   0.00079  -0.02810  -0.00000   0.00000
  0-1A  -> 33-1A   19.080816  153897.2    65.0   0.144308179   0.30870  -0.00000  -0.55561   0.00001
  0-1A  -> 34-1A   19.259478  155338.2    64.4   0.000000000   0.00000  -0.00000   0.00000  -0.00000
  0-1A  -> 35-1A   19.352368  156087.4    64.1   0.005356301   0.01130   0.00001   0.10629  -0.00000
  0-1A  -> 36-1A   19.395794  156437.6    63.9   0.434516544   0.91441   0.95625  -0.00000  -0.00001
  0-1A  -> 37-1A   19.632668  158348.2    63.2   0.000429686   0.00089  -0.02989   0.00000   0.00000
  0-1A  -> 38-1A   20.258678  163397.3    61.2   0.033053358   0.06660  -0.00000  -0.00001  -0.25806
  0-1A  -> 39-1A   21.051967  169795.6    58.9   0.005549245   0.01076   0.00000   0.00000   0.10373
  0-1A  -> 40-1A   21.375474  172404.8    58.0   0.000000000   0.00000   0.00000   0.00000   0.00000
  0-1A  -> 41-1A   21.563842  173924.1    57.5   0.029216083   0.05530  -0.00000  -0.00001  -0.23516
  0-1A  -> 42-1A   21.626076  174426.1    57.3   0.055584922   0.10491  -0.32390  -0.00000   0.00000
  0-1A  -> 43-1A   21.804406  175864.4    56.9   0.034642314   0.06485  -0.25466   0.00000   0.00000
  0-1A  -> 44-1A   21.841744  176165.6    56.8   0.007227783   0.01351   0.00000   0.00000   0.11622
  0-1A  -> 45-1A   22.442440  181010.5    55.2   0.000052142   0.00009   0.00000  -0.00000  -0.00974
  0-1A  -> 46-1A   22.463449  181180.0    55.2   0.034451125   0.06260  -0.25020  -0.00000   0.00000
  0-1A  -> 47-1A   22.661299  182775.7    54.7   0.081859714   0.14744  -0.38398  -0.00000   0.00000
  0-1A  -> 48-1A   22.964864  185224.1    54.0   0.001947382   0.00346   0.00000   0.05883  -0.00000
  0-1A  -> 49-1A   23.183373  186986.5    53.5   0.000052286   0.00009   0.00000   0.00959  -0.00000
  0-1A  -> 50-1A   23.208995  187193.2    53.4   0.036124564   0.06353   0.00000   0.25205  -0.00001

FINAL SINGLE POINT ENERGY      -114.346657210656

DIPOLE MOMENT
-------------

Method             : SCF
Type of density    : Electron Density
Multiplicity       :   1
Irrep              :   0
Energy             :  -114.4950879134200648 Eh
Relativity type    :
Basis              : AO
                                X                 Y                 Z
Electronic contribution:      1.303301126      -0.000000013      -0.000014312
Nuclear contribution   :     -2.219073411       0.000000000       0.000024278
                        -----------------------------------------
Total Dipole Moment    :     -0.915772285      -0.000000013       0.000009966
                        -----------------------------------------
Magnitude (a.u.)       :      0.915772285
Magnitude (Debye)      :      2.327708163

Rotational constants in cm-1:             9.486977             1.306257             1.148167
Rotational constants in MHz :        284412.403401         39160.613114         34421.177063

                             ****ORCA TERMINATED NORMALLY****
TOTAL RUN TIME: 0 days 0 hours 0 minutes 3 seconds 462 msec
