                         Program Version 6.0.1  -  RELEASE   -
|  1> !opt B3LYP cc-PVTZ
|  2> * xyzfile 0 1 H2CO.xyz
|  3> $new_job
|  4> !B3LYP cc-PVTZ
|  5> %TDDFT
|  6> NROOTS 50
|  7> TPrint 0.000001
|  8> TDA TRUE
|  9> END
| 10> * xyzfile 0 1 H2CO.xyz
| 11> %scf
| 12> MaxIter 100
| 13> end
| 14>
| 15>                          ****END OF INPUT****
 Total Charge           Charge          ....    0
 Multiplicity           Mult            ....    1
 Number of Electrons    NEL             ....   16
FINAL SINGLE POINT ENERGY      -114.490223394957
FINAL SINGLE POINT ENERGY      -114.490238795464
FINAL SINGLE POINT ENERGY      -114.490240348779
                    ***********************HURRAY********************
FINAL SINGLE POINT ENERGY      -114.490240542530

CARTESIAN COORDINATES (ANGSTROEM)
---------------------------------
  C     -0.428444   -1.070959    0.000010
  O      0.770933   -1.070959   -0.000017
  H     -1.017011   -0.133397    0.000004
  H     -1.017011   -2.008522    0.000043

 Multiplicity           Mult            ....    1
 Number of Electrons    NEL             ....   16
 Basis Dimension        Dim             ....   88

ORBITAL ENERGIES
----------------

  NO   OCC          E(Eh)            E(eV)
   0   2.0000     -19.146840      -521.0120
   1   2.0000     -10.272659      -279.5333
   2   2.0000      -1.067253       -29.0414
   3   2.0000      -0.637973       -17.3601
   4   2.0000      -0.499995       -13.6056
   5   2.0000      -0.456610       -12.4250
   6   2.0000      -0.406750       -11.0682
   7   2.0000      -0.273795        -7.4503
   8   0.0000      -0.051572        -1.4033
   9   0.0000       0.046692         1.2705
  10   0.0000       0.106374         2.8946
  11   0.0000       0.144734         3.9384
  12   0.0000       0.283501         7.7145

MULLIKEN ATOMIC CHARGES
-----------------------
   0 C :    0.161015
   1 O :   -0.240133
   2 H :    0.039560
   3 H :    0.039559
Sum of atomic charges:    0.0000000

LOEWDIN ATOMIC CHARGES
----------------------
   0 C :   -0.089027
   1 O :    0.222395
   2 H :   -0.066684
   3 H :   -0.066684

  Mayer bond orders larger than 0.100000
B(  0-C ,  1-O ) :   2.1371 B(  0-C ,  2-H ) :   0.8899 B(  0-C ,  3-H ) :   0.8899

----------------------------------------------------------------------------------------------------
                     ABSORPTION SPECTRUM VIA TRANSITION ELECTRIC DIPOLE MOMENTS
----------------------------------------------------------------------------------------------------
     Transition      Energy     Energy  Wavelength fosc(D2)      D2        DX        DY        DZ
                      (eV)      (cm-1)    (nm)                 (au**2)    (au)      (au)      (au)
----------------------------------------------------------------------------------------------------
  0-1A  ->  1-1A    4.049943   32665.0   306.1   0.000000000   0.00000   0.00000  -0.00000  -0.00000
  0-1A  ->  2-1A    7.666514   61834.6   161.7   0.107812986   0.57400   0.00000   0.75763  -0.00002
  0-1A  ->  3-1A    9.218865   74355.2   134.5   0.000683651   0.00303   0.00000   0.00000   0.05502
  0-1A  ->  4-1A    9.275255   74810.0   133.7   0.032066944   0.14112  -0.37565   0.00000   0.00001
  0-1A  ->  5-1A    9.929542   80087.2   124.9   0.024702247   0.10154   0.00000  -0.31866   0.00001
  0-1A  ->  6-1A   10.220794   82436.3   121.3   0.000000000   0.00000   0.00000   0.00000  -0.00000
  0-1A  ->  7-1A   10.767650   86847.0   115.1   0.398180533   1.50939  -1.22857   0.00000   0.00003
  0-1A  ->  8-1A   11.129801   89767.9   111.4   0.010268609   0.03766  -0.00000  -0.00000  -0.19406
  0-1A  ->  9-1A   12.648212  102014.7    98.0   0.000000000   0.00000   0.00000   0.00000  -0.00000
  0-1A  -> 10-1A   12.736873  102729.8    97.3   0.067589314   0.21660  -0.46540  -0.00000   0.00001
  0-1A  -> 11-1A   13.555877  109335.5    91.5   0.000000000   0.00000   0.00000  -0.00000   0.00000
  0-1A  -> 12-1A   13.617648  109833.8    91.0   0.066995123   0.20081  -0.00001  -0.00001  -0.44812
  0-1A  -> 13-1A   13.658459  110162.9    90.8   0.164949810   0.49294   0.00000  -0.70210   0.00002
  0-1A  -> 14-1A   14.148383  114114.4    87.6   0.041074971   0.11850  -0.00000  -0.34424   0.00001
  0-1A  -> 15-1A   14.545259  117315.4    85.2   0.229324650   0.64353   0.00000   0.80221  -0.00002
  0-1A  -> 16-1A   14.961335  120671.3    82.9   0.123379443   0.33660  -0.58017   0.00000   0.00001
  0-1A  -> 17-1A   15.336838  123700.0    80.8   0.163368416   0.43478  -0.00001  -0.00001  -0.65938
  0-1A  -> 18-1A   15.535267  125300.4    79.8   0.127111311   0.33397   0.57790  -0.00001  -0.00001
  0-1A  -> 19-1A   15.965209  128768.1    77.7   0.133934545   0.34242  -0.58517   0.00000   0.00001
  0-1A  -> 20-1A   16.253621  131094.3    76.3   0.125781169   0.31587  -0.00001  -0.56202   0.00001
  0-1A  -> 21-1A   17.282355  139391.6    71.7   0.014564550   0.03440  -0.18547  -0.00000   0.00000
  0-1A  -> 22-1A   17.838727  143879.1    69.5   0.213548393   0.48862   0.00002   0.00001   0.69902
  0-1A  -> 23-1A   18.052163  145600.5    68.7   0.000008251   0.00002  -0.00001   0.00432   0.00000
  0-1A  -> 24-1A   18.415941  148534.6    67.3   0.000000000   0.00000   0.00000   0.00000  -0.00000
  0-1A  -> 25-1A   18.589322  149933.0    66.7   0.398769812   0.87559   0.93573   0.00000  -0.00002
  0-1A  -> 26-1A   18.665459  150547.1    66.4   0.137048815   0.29969  -0.00001  -0.00001  -0.54744
  0-1A  -> 27-1A   18.878641  152266.5    65.7   0.025580031   0.05531  -0.00000  -0.23517   0.00001
  0-1A  -> 28-1A   18.925922  152647.9    65.5   0.003395805   0.00732  -0.08558  -0.00002   0.00000
  0-1A  -> 29-1A   19.042629  153589.2    65.1   0.000714703   0.00153  -0.03914  -0.00001  -0.00000
  0-1A  -> 30-1A   19.089945  153970.8    64.9   0.070665183   0.15109  -0.00000  -0.38871   0.00001
  0-1A  -> 31-1A   19.513389  157386.1    63.5   0.000000000   0.00000   0.00000   0.00000   0.00000
  0-1A  -> 32-1A   19.881169  160352.5    62.4   0.015471708   0.03176  -0.00000  -0.17823   0.00000
  0-1A  -> 33-1A   20.268715  163478.2    61.2   0.349720812   0.70427   0.83921  -0.00000  -0.00002
  0-1A  -> 34-1A   20.378733  164365.6    60.8   0.108708407   0.21773  -0.00001  -0.00001  -0.46662
  0-1A  -> 35-1A   20.449217  164934.1    60.6   0.005891059   0.01176   0.00000  -0.10844  -0.00000
  0-1A  -> 36-1A   20.830057  168005.8    59.5   0.097743904   0.19153  -0.00000   0.43764  -0.00001
  0-1A  -> 37-1A   21.152738  170608.4    58.6   0.000000000   0.00000  -0.00000   0.00000   0.00000
  0-1A  -> 38-1A   21.400293  172605.0    57.9   0.028102474   0.05360   0.23152  -0.00000  -0.00001
  0-1A  -> 39-1A   21.583683  174084.2    57.4   0.018976857   0.03589   0.00000   0.00000   0.18944
  0-1A  -> 40-1A   22.464563  181188.9    55.2   0.008011338   0.01456  -0.00000  -0.00000  -0.12065
  0-1A  -> 41-1A   22.863227  184404.4    54.2   0.000000000   0.00000  -0.00000   0.00000  -0.00000
  0-1A  -> 42-1A   22.912111  184798.7    54.1   0.029439679   0.05245  -0.00000  -0.22901   0.00000
  0-1A  -> 43-1A   23.144715  186674.7    53.6   0.039279754   0.06927  -0.26320  -0.00000   0.00001
  0-1A  -> 44-1A   23.513131  189646.2    52.7   0.029899537   0.05190   0.00001   0.00001   0.22782
  0-1A  -> 45-1A   23.954107  193202.9    51.8   0.027186202   0.04632  -0.00001  -0.00000  -0.21523
  0-1A  -> 46-1A   24.037027  193871.7    51.6   0.006328946   0.01075   0.00000   0.10367  -0.00000
  0-1A  -> 47-1A   24.073491  194165.8    51.5   0.068293016   0.11579  -0.34028  -0.00000   0.00001
  0-1A  -> 48-1A   24.524634  197804.5    50.6   0.357926503   0.59571  -0.00001  -0.77182   0.00002
  0-1A  -> 49-1A   24.724098  199413.3    50.1   0.059541541   0.09830   0.31352  -0.00001  -0.00001
  0-1A  -> 50-1A   24.904105  200865.2    49.8   0.251612946   0.41239  -0.64217   0.00001   0.00001

FINAL SINGLE POINT ENERGY      -114.341407861357

DIPOLE MOMENT
-------------

Method             : SCF
Type of density    : Electron Density
Multiplicity       :   1
Irrep              :   0
Energy             :  -114.4902405438170234 Eh
Relativity type    :
Basis              : AO
                                X                 Y                 Z
Electronic contribution:      1.323587262       0.000000192      -0.000030089
Nuclear contribution   :     -2.220467621      -0.000000096       0.000050506
                        -----------------------------------------
Total Dipole Moment    :     -0.896880360       0.000000096       0.000020416
                        -----------------------------------------
Magnitude (a.u.)       :      0.896880360
Magnitude (Debye)      :      2.279688706

Rotational constants in cm-1:             9.512746             1.304810             1.147424
Rotational constants in MHz :        285184.948015         39117.227378         34398.919597

                             ****ORCA TERMINATED NORMALLY****
TOTAL RUN TIME: 0 days 0 hours 0 minutes 18 seconds 49 msec
