                         Program Version 6.0.1  -  RELEASE   -
|  1> !def2-SVP PBE0 RI-SOMF(1X) SARC/J def2-SVP/C
|  2> %TDDFT
|  3> NROOTS  3
|  4> DOSOC   TRUE
|  5> TDA     TRUE
|  6> TRIPLETS TRUE
|  7> END
|  8> * xyzfile 1 1 Br.xyz
|  9> %scf
| 10> MaxIter 100
| 11> end
| 12> %rel
| 13> method DKH
| 14> order 2
| 15> picturechange 2
| 16> SOCType 3
| 17> SOCFlags 1,3,3,0
| 18> SOCMaxCenter 4
| 19> end
| 20>
| 21>                          ****END OF INPUT****

CARTESIAN COORDINATES (ANGSTROEM)
---------------------------------
  Br     0.000000    0.000000    0.000000

 Total Charge           Charge          ....    1
 Multiplicity           Mult            ....    1
 Number of Electrons    NEL             ....   34
 Basis Dimension        Dim             ....   32

ORBITAL ENERGIES
----------------

  NO   OCC          E(Eh)            E(eV)
   0   2.0000    -489.688840    -13325.1108
   1   2.0000     -64.859139     -1764.9069
   2   2.0000     -57.671254     -1569.3146
   3   2.0000     -57.662119     -1569.0660
   4   2.0000     -57.662119     -1569.0660
   5   2.0000      -9.496373      -258.4094
   6   2.0000      -7.179477      -195.3635
   7   2.0000      -7.138602      -194.2512
   8   2.0000      -7.138602      -194.2512
   9   2.0000      -3.122343       -84.9633
  10   2.0000      -3.111690       -84.6734
  11   2.0000      -3.111690       -84.6734
  12   2.0000      -3.078854       -83.7799
  13   2.0000      -3.078854       -83.7799
  14   2.0000      -1.193292       -32.4711
  15   2.0000      -0.681025       -18.5316
  16   2.0000      -0.681025       -18.5316
  17   0.0000      -0.631334       -17.1795
  18   0.0000      -0.019859        -0.5404
  19   0.0000       0.146172         3.9775
  20   0.0000       0.148439         4.0392
  21   0.0000       0.148439         4.0392

MULLIKEN ATOMIC CHARGES
-----------------------
   0 Br:    1.000000
Sum of atomic charges:    1.0000000

LOEWDIN ATOMIC CHARGES
----------------------
   0 Br:    1.000000

--------------------------------------------------------------------------------------------------------
      SOC CORRECTED ABSORPTION SPECTRUM VIA TRANSITION ELECTRIC DIPOLE MOMENTS
--------------------------------------------------------------------------------------------------------
      Transition         Energy     Energy  Wavelength fosc(D2)      D2       |DX|      |DY|      |DZ|
                          (eV)      (cm-1)    (nm)                 (au**2)    (au)      (au)      (au)
--------------------------------------------------------------------------------------------------------
  0-3.0A  ->  1-3.0A   -2.331288  -18803.1     0.0   -0.000000000   0.00000   0.00000   0.00000   0.00000
  0-3.0A  ->  2-3.0A   -2.196930  -17719.4     0.0   -0.000000000   0.00000   0.00000   0.00000   0.00000
  0-3.0A  ->  3-3.0A   -2.196923  -17719.4     0.0   -0.000000000   0.00000   0.00000   0.00000   0.00000
  0-3.0A  ->  4-3.0A   -2.078229  -16762.1     0.0   -0.000000000   0.00000   0.00000   0.00000   0.00000
  0-3.0A  ->  5-3.0A   -2.032669  -16394.6     0.0   -0.000000000   0.00000   0.00000   0.00000   0.00000
  0-3.0A  ->  6-1.0A   -0.689539   -5561.5     0.0   -0.000000000   0.00000   0.00000   0.00000   0.00000
  0-3.0A  ->  7-1.0A   -0.689532   -5561.4     0.0   -0.000000000   0.00000   0.00000   0.00000   0.00000
  0-3.0A  ->  8-1.0A    0.045560     367.5  27213.5   0.000000000   0.00000   0.00000   0.00000   0.00000
  0-3.0A  ->  9-3.0A   10.625165   85697.7   116.7   0.058991335   0.22662   0.27501   0.16521   0.35170
  0-3.0A  -> 11-3.0A   10.625165   85697.7   116.7   0.055459328   0.21305   0.35240   0.18902   0.23050
  0-3.0A  -> 10-3.0A   10.625165   85697.7   116.7   0.059850809   0.22992   0.35360   0.19760   0.25659
  0-3.0A  -> 12-1.0A   14.874997  119975.0    83.4   0.000000000   0.00000   0.00000   0.00000   0.00000

FINAL SINGLE POINT ENERGY     -2596.528927729217

DIPOLE MOMENT
-------------

Method             : SCF
Type of density    : Electron Density
Multiplicity       :   1
Irrep              :   0
Energy             : -2596.4432544734158910 Eh
Relativity type    :
Basis              : AO
                                X                 Y                 Z
Electronic contribution:     -0.000000000       0.000000001      -0.000000005
Nuclear contribution   :      0.000000000       0.000000000       0.000000000
                        -----------------------------------------
Total Dipole Moment    :     -0.000000000       0.000000001      -0.000000005
                        -----------------------------------------
Magnitude (a.u.)       :      0.000000005
Magnitude (Debye)      :      0.000000014

Rotational constants in cm-1:             0.000000             0.000000             0.000000
Rotational constants in MHz :             0.000000             0.000000             0.000000

                             ****ORCA TERMINATED NORMALLY****
TOTAL RUN TIME: 0 days 0 hours 0 minutes 3 seconds 374 msec
