                         Program Version 6.0.1  -  RELEASE   -
|  1> !def2-SVP PBE0 SARC/J def2-SVP/C Opt
|  2> * xyzfile 0 1 H2CO.xyz
|  3> %scf
|  4> MaxIter 100
|  5> end
|  6> %rel
|  7> method DKH
|  8> order 2
|  9> picturechange 2
| 10> end
| 11> $new_job
| 12> !def2-SVP PBE0 RI-SOMF(1X) SARC/J def2-SVP/C
| 13> %TDDFT
| 14> NROOTS  25
| 15> DOSOC   TRUE
| 16> TDA     TRUE
| 17> TRIPLETS TRUE
| 18> END
| 19> * xyzfile 0 1 H2CO.xyz
| 20> %scf
| 21> MaxIter 100
| 22> end
| 23> %rel
| 24> method DKH
| 25> order 2
| 26> picturechange 2
| 27> SOCType 3
| 28> SOCFlags 1,3,3,0
| 29> SOCMaxCenter 4
| 30> end
| 31>
| 32>                          ****END OF INPUT****
 Total Charge           Charge          ....    0
 Multiplicity           Mult            ....    1
 Number of Electrons    NEL             ....   16
FINAL SINGLE POINT ENERGY      -114.345973319933
FINAL SINGLE POINT ENERGY      -114.346140765555
FINAL SINGLE POINT ENERGY      -114.346150882156
FINAL SINGLE POINT ENERGY      -114.346154506742
                    ***********************HURRAY********************
FINAL SINGLE POINT ENERGY      -114.346154775506

CARTESIAN COORDINATES (ANGSTROEM)
---------------------------------
  C     -0.421091   -1.070959    0.000010
  O      0.775276   -1.070959   -0.000003
  H     -1.022859   -0.126203   -0.000003
  H     -1.022859   -2.015715    0.000036

 Multiplicity           Mult            ....    1
 Number of Electrons    NEL             ....   16
 Basis Dimension        Dim             ....   38

ORBITAL ENERGIES
----------------

  NO   OCC          E(Eh)            E(eV)
   0   2.0000     -19.243129      -523.6322
   1   2.0000     -10.337502      -281.2977
   2   2.0000      -1.084512       -29.5111
   3   2.0000      -0.643449       -17.5091
   4   2.0000      -0.509107       -13.8535
   5   2.0000      -0.466729       -12.7003
   6   2.0000      -0.419023       -11.4022
   7   2.0000      -0.280167        -7.6237
   8   0.0000      -0.035317        -0.9610
   9   0.0000       0.080664         2.1950
  10   0.0000       0.147456         4.0125
  11   0.0000       0.208505         5.6737
  12   0.0000       0.458520        12.4770

MULLIKEN ATOMIC CHARGES
-----------------------
   0 C :    0.143207
   1 O :   -0.219836
   2 H :    0.038314
   3 H :    0.038314
Sum of atomic charges:    0.0000000

LOEWDIN ATOMIC CHARGES
----------------------
   0 C :    0.128096
   1 O :   -0.117589
   2 H :   -0.005254
   3 H :   -0.005254

  Mayer bond orders larger than 0.100000
B(  0-C ,  1-O ) :   2.1164 B(  0-C ,  2-H ) :   0.9122 B(  0-C ,  3-H ) :   0.9122

--------------------------------------------------------------------------------------------------------
      SOC CORRECTED ABSORPTION SPECTRUM VIA TRANSITION ELECTRIC DIPOLE MOMENTS
--------------------------------------------------------------------------------------------------------
      Transition         Energy     Energy  Wavelength fosc(D2)      D2       |DX|      |DY|      |DZ|
                          (eV)      (cm-1)    (nm)                 (au**2)    (au)      (au)      (au)
--------------------------------------------------------------------------------------------------------
  0-1.0A  ->  1-3.0A    3.322183   26795.2   373.2   0.000000002   0.00000   0.00000   0.00015   0.00000
  0-1.0A  ->  2-3.0A    3.322185   26795.2   373.2   0.000000004   0.00000   0.00000   0.00000   0.00022
  0-1.0A  ->  3-3.0A    3.322206   26795.4   373.2   0.000000407   0.00001   0.00224   0.00000   0.00000
  0-1.0A  ->  4-1.0A    4.096875   33043.5   302.6   0.000000000   0.00000   0.00000   0.00000   0.00000
  0-1.0A  ->  5-3.0A    5.935954   47876.7   208.9   0.000000000   0.00000   0.00000   0.00000   0.00000
  0-1.0A  ->  6-3.0A    5.935958   47876.7   208.9   0.000000002   0.00000   0.00000   0.00000   0.00012
  0-1.0A  ->  7-3.0A    5.935959   47876.7   208.9   0.000000000   0.00000   0.00000   0.00000   0.00000
  0-1.0A  ->  8-3.0A    7.650684   61706.9   162.1   0.000000000   0.00000   0.00000   0.00000   0.00000
  0-1.0A  ->  9-3.0A    7.650685   61706.9   162.1   0.000000044   0.00000   0.00048   0.00000   0.00000
  0-1.0A  -> 10-3.0A    7.650685   61706.9   162.1   0.000000000   0.00000   0.00000   0.00000   0.00003
  0-1.0A  -> 11-3.0A    8.012167   64622.5   154.7   0.000001272   0.00001   0.00255   0.00000   0.00000
  0-1.0A  -> 12-3.0A    8.012178   64622.6   154.7   0.000000000   0.00000   0.00000   0.00003   0.00000
  0-1.0A  -> 13-3.0A    8.012180   64622.6   154.7   0.000000000   0.00000   0.00000   0.00000   0.00000
  0-1.0A  -> 14-1.0A    8.489074   68469.0   146.1   0.183539081   0.88249   0.00000   0.93941   0.00002
  0-1.0A  -> 15-3.0A    9.287836   74911.5   133.5   0.000000001   0.00000   0.00000   0.00000   0.00008
  0-1.0A  -> 16-3.0A    9.287837   74911.5   133.5   0.000000064   0.00000   0.00000   0.00053   0.00000
  0-1.0A  -> 17-3.0A    9.287838   74911.5   133.5   0.000000000   0.00000   0.00000   0.00000   0.00000
  0-1.0A  -> 18-1.0A    9.384237   75689.0   132.1   0.001606122   0.00699   0.00000   0.00000   0.08358
  0-1.0A  -> 19-3.0A    9.536521   76917.2   130.0   0.000003358   0.00001   0.00379   0.00000   0.00000
  0-1.0A  -> 20-3.0A    9.536546   76917.4   130.0   0.000000035   0.00000   0.00000   0.00038   0.00000
  0-1.0A  -> 21-3.0A    9.536570   76917.6   130.0   0.000000213   0.00000   0.00000   0.00000   0.00095
  0-1.0A  -> 22-1.0A    9.962870   80356.0   124.4   0.003273072   0.01341   0.11580   0.00000   0.00000
  0-1.0A  -> 23-1.0A   10.367960   83623.2   119.6   0.000000000   0.00000   0.00000   0.00000   0.00000
  0-1.0A  -> 24-3.0A   10.728421   86530.6   115.6   0.000000000   0.00000   0.00000   0.00000   0.00000
  0-1.0A  -> 25-3.0A   10.728421   86530.6   115.6   0.000000001   0.00000   0.00005   0.00000   0.00000
  0-1.0A  -> 26-3.0A   10.728422   86530.6   115.6   0.000000636   0.00000   0.00000   0.00000   0.00156
  0-1.0A  -> 27-1.0A   11.233660   90605.6   110.4   0.010750794   0.03906   0.00000   0.19764   0.00000
  0-1.0A  -> 28-3.0A   11.662727   94066.2   106.3   0.000040588   0.00014   0.01192   0.00000   0.00000
  0-1.0A  -> 29-3.0A   11.662741   94066.4   106.3   0.000000000   0.00000   0.00000   0.00000   0.00000
  0-1.0A  -> 30-3.0A   11.662748   94066.4   106.3   0.000002702   0.00001   0.00000   0.00307   0.00000
  0-1.0A  -> 31-1.0A   11.866549   95710.2   104.5   0.579249605   1.99243   1.41153   0.00000   0.00002
  0-1.0A  -> 32-1.0A   11.997100   96763.2   103.3   0.002573038   0.00875   0.00000   0.00000   0.09356
  0-1.0A  -> 33-3.0A   12.937261  104346.1    95.8   0.000000000   0.00000   0.00000   0.00000   0.00000
  0-1.0A  -> 34-3.0A   12.937263  104346.1    95.8   0.000000204   0.00000   0.00000   0.00080   0.00000
  0-1.0A  -> 35-3.0A   12.937268  104346.1    95.8   0.000000568   0.00000   0.00134   0.00000   0.00000
  0-1.0A  -> 36-3.0A   13.020312  105015.9    95.2   0.000000060   0.00000   0.00000   0.00000   0.00043
  0-1.0A  -> 37-3.0A   13.020317  105016.0    95.2   0.000000000   0.00000   0.00000   0.00000   0.00000
  0-1.0A  -> 38-3.0A   13.020328  105016.0    95.2   0.000000981   0.00000   0.00000   0.00175   0.00000
  0-1.0A  -> 39-3.0A   13.374679  107874.1    92.7   0.000000002   0.00000   0.00000   0.00000   0.00008
  0-1.0A  -> 40-3.0A   13.374684  107874.1    92.7   0.000000397   0.00000   0.00000   0.00110   0.00000
  0-1.0A  -> 41-3.0A   13.374686  107874.1    92.7   0.000000032   0.00000   0.00031   0.00000   0.00000
  0-1.0A  -> 42-3.0A   13.539911  109206.8    91.6   0.000149658   0.00045   0.02124   0.00000   0.00000
  0-1.0A  -> 43-3.0A   13.540012  109207.6    91.6   0.000000000   0.00000   0.00000   0.00000   0.00000
  0-1.0A  -> 44-3.0A   13.540018  109207.6    91.6   0.000000090   0.00000   0.00000   0.00000   0.00052
  0-1.0A  -> 45-1.0A   13.601956  109707.2    91.2   0.000000000   0.00000   0.00000   0.00000   0.00000
  0-1.0A  -> 46-1.0A   13.633182  109959.0    90.9   0.141213120   0.42279   0.65022   0.00000   0.00001
  0-1.0A  -> 47-3.0A   14.270173  115096.7    86.9   0.000000000   0.00000   0.00000   0.00000   0.00000
  0-1.0A  -> 48-3.0A   14.270175  115096.7    86.9   0.000000296   0.00000   0.00000   0.00092   0.00000
  0-1.0A  -> 49-3.0A   14.270178  115096.8    86.9   0.000002889   0.00001   0.00287   0.00000   0.00000
  0-1.0A  -> 50-1.0A   14.470388  116711.6    85.7   0.283019244   0.79832   0.00000   0.89349   0.00002
  0-1.0A  -> 51-3.0A   14.725528  118769.4    84.2   0.000000020   0.00000   0.00000   0.00000   0.00024
  0-1.0A  -> 52-3.0A   14.725531  118769.4    84.2   0.000000000   0.00000   0.00000   0.00000   0.00000
  0-1.0A  -> 53-3.0A   14.725552  118769.6    84.2   0.000000633   0.00000   0.00132   0.00000   0.00000
  0-1.0A  -> 54-1.0A   14.873402  119962.1    83.4   0.009630954   0.02643   0.00000   0.00000   0.16257
  0-1.0A  -> 55-3.0A   15.012504  121084.0    82.6   0.000066140   0.00018   0.00000   0.01341   0.00000
  0-1.0A  -> 56-3.0A   15.012584  121084.7    82.6   0.000000185   0.00000   0.00000   0.00000   0.00071
  0-1.0A  -> 57-3.0A   15.012587  121084.7    82.6   0.000000000   0.00000   0.00000   0.00000   0.00000
  0-1.0A  -> 58-1.0A   15.127961  122015.2    82.0   0.124308027   0.33540   0.00000   0.57914   0.00001
  0-1.0A  -> 59-3.0A   15.850237  127840.8    78.2   0.000268342   0.00069   0.00000   0.00000   0.02629
  0-1.0A  -> 60-3.0A   15.850290  127841.2    78.2   0.000000000   0.00000   0.00000   0.00000   0.00000
  0-1.0A  -> 61-3.0A   15.850294  127841.3    78.2   0.000000055   0.00000   0.00000   0.00038   0.00000
  0-1.0A  -> 62-1.0A   15.936798  128539.0    77.8   0.433258312   1.10965   0.00001   0.00002   1.05340
  0-1.0A  -> 63-1.0A   16.498467  133069.1    75.1   0.271478764   0.67164   0.81953   0.00000   0.00001
  0-1.0A  -> 64-3.0A   16.721053  134864.4    74.1   0.000000000   0.00000   0.00000   0.00000   0.00000
  0-1.0A  -> 65-3.0A   16.721057  134864.4    74.1   0.000002154   0.00001   0.00000   0.00000   0.00229
  0-1.0A  -> 66-3.0A   16.721072  134864.6    74.1   0.000026279   0.00006   0.00801   0.00000   0.00000
  0-1.0A  -> 67-1.0A   16.867524  136045.8    73.5   0.027003385   0.06534   0.25563   0.00000   0.00000
  0-1.0A  -> 68-3.0A   17.110114  138002.4    72.5   0.000000000   0.00000   0.00000   0.00000   0.00000
  0-1.0A  -> 69-3.0A   17.110114  138002.4    72.5   0.000000001   0.00000   0.00000   0.00005   0.00000
  0-1.0A  -> 70-3.0A   17.110115  138002.4    72.5   0.000000243   0.00000   0.00000   0.00000   0.00076
  0-1.0A  -> 71-3.0A   17.576264  141762.1    70.5   0.000003131   0.00001   0.00000   0.00000   0.00270
  0-1.0A  -> 72-3.0A   17.576267  141762.2    70.5   0.000000006   0.00000   0.00011   0.00000   0.00000
  0-1.0A  -> 73-3.0A   17.576267  141762.2    70.5   0.000000000   0.00000   0.00000   0.00000   0.00000
  0-1.0A  -> 74-1.0A   17.657885  142420.5    70.2   0.147106349   0.34004   0.00000   0.58313   0.00001
  0-1.0A  -> 75-3.0A   18.200908  146800.2    68.1   0.000000008   0.00000   0.00000   0.00000   0.00013
  0-1.0A  -> 76-3.0A   18.200908  146800.2    68.1   0.000000008   0.00000   0.00000   0.00014   0.00000
  0-1.0A  -> 77-3.0A   18.200913  146800.3    68.1   0.000000135   0.00000   0.00055   0.00000   0.00000
  0-1.0A  -> 78-1.0A   18.281201  147447.8    67.8   0.000000000   0.00000   0.00000   0.00000   0.00000
  0-1.0A  -> 79-1.0A   18.709032  150898.5    66.3   0.174510044   0.38072   0.00000   0.61703   0.00001
  0-1.0A  -> 80-1.0A   18.893492  152386.3    65.6   0.043770907   0.09456   0.30751   0.00000   0.00000
  0-1.0A  -> 81-3.0A   19.001074  153254.0    65.3   0.000000000   0.00000   0.00000   0.00000   0.00000
  0-1.0A  -> 82-3.0A   19.001074  153254.0    65.3   0.000000000   0.00000   0.00003   0.00000   0.00000
  0-1.0A  -> 83-3.0A   19.001074  153254.0    65.3   0.000000133   0.00000   0.00000   0.00000   0.00054
  0-1.0A  -> 84-3.0A   19.502372  157297.3    63.6   0.000000000   0.00000   0.00000   0.00000   0.00000
  0-1.0A  -> 85-3.0A   19.502372  157297.3    63.6   0.000000021   0.00000   0.00000   0.00000   0.00021
  0-1.0A  -> 86-3.0A   19.502374  157297.3    63.6   0.000000124   0.00000   0.00000   0.00051   0.00000
  0-1.0A  -> 87-1.0A   19.896826  160478.7    62.3   0.028138479   0.05772   0.00000   0.24026   0.00000
  0-1.0A  -> 88-3.0A   20.604452  166186.1    60.2   0.000000000   0.00000   0.00000   0.00000   0.00000
  0-1.0A  -> 89-3.0A   20.604452  166186.1    60.2   0.000000000   0.00000   0.00000   0.00000   0.00001
  0-1.0A  -> 90-3.0A   20.604453  166186.1    60.2   0.000000100   0.00000   0.00000   0.00044   0.00000
  0-1.0A  -> 91-3.0A   21.078539  170009.9    58.8   0.000000087   0.00000   0.00000   0.00000   0.00041
  0-1.0A  -> 92-3.0A   21.078539  170009.9    58.8   0.000000000   0.00000   0.00000   0.00002   0.00000
  0-1.0A  -> 93-3.0A   21.078540  170009.9    58.8   0.000000000   0.00000   0.00000   0.00000   0.00000
  0-1.0A  -> 94-3.0A   21.233206  171257.4    58.4   0.000000069   0.00000   0.00036   0.00000   0.00000
  0-1.0A  -> 95-3.0A   21.233223  171257.5    58.4   0.000000675   0.00000   0.00000   0.00000   0.00114
  0-1.0A  -> 96-3.0A   21.233225  171257.5    58.4   0.000000000   0.00000   0.00000   0.00000   0.00000
  0-1.0A  -> 97-1.0A   21.372961  172384.6    58.0   0.005635057   0.01076   0.10374   0.00000   0.00000
  0-1.0A  -> 98-1.0A   22.129692  178488.0    56.0   0.280197662   0.51681   0.71890   0.00000   0.00003
  0-1.0A  -> 99-1.0A   22.139760  178569.2    56.0   0.298778437   0.55083   0.00003   0.00002   0.74218
  0-1.0A  -> 100-1.0A   22.384285  180541.5    55.4   0.001132193   0.00206   0.00000   0.04544   0.00000

FINAL SINGLE POINT ENERGY      -114.224066779826

DIPOLE MOMENT
-------------

Method             : SCF
Type of density    : Electron Density
Multiplicity       :   1
Irrep              :   0
Energy             :  -114.3461547753039014 Eh
Relativity type    :
Basis              : AO
                                X                 Y                 Z
Electronic contribution:      1.387607938       0.000000037      -0.000015199
Nuclear contribution   :     -2.240573286      -0.000000074       0.000024496
                        -----------------------------------------
Total Dipole Moment    :     -0.852965348      -0.000000037       0.000009297
                        -----------------------------------------
Magnitude (a.u.)       :      0.852965348
Magnitude (Debye)      :      2.168065616

Rotational constants in cm-1:             9.368431             1.304227             1.144847
Rotational constants in MHz :        280858.506746         39099.730780         34321.641743

                             ****ORCA TERMINATED NORMALLY****
TOTAL RUN TIME: 0 days 0 hours 0 minutes 19 seconds 830 msec
