                         Program Version 6.0.1  -  RELEASE   -
|  1> !M06 aug-cc-pvqz Opt
|  2> * xyzfile 0 1 H2CO.xyz
|  3> %scf
|  4> MaxIter 100
|  5> end
|  6> $new_job
|  7> !M06 aug-cc-pvqz
|  8> %TDDFT
|  9> NROOTS  50
| 10> TPrint 0.000001
| 11> TDA TRUE
| 12> END
| 13> * xyzfile 0 1 H2CO.xyz
| 14> %scf
| 15> MaxIter 100
| 16> end
| 17>
| 18>                          ****END OF INPUT****
 Total Charge           Charge          ....    0
 Multiplicity           Mult            ....    1
 Number of Electrons    NEL             ....   16
FINAL SINGLE POINT ENERGY      -114.492340554718
FINAL SINGLE POINT ENERGY      -114.492444352806
FINAL SINGLE POINT ENERGY      -114.492455387728
FINAL SINGLE POINT ENERGY      -114.492457283470
FINAL SINGLE POINT ENERGY      -114.492457879404
                    ***********************HURRAY********************
FINAL SINGLE POINT ENERGY      -114.492457917062

CARTESIAN COORDINATES (ANGSTROEM)
---------------------------------
  C     -0.423358   -1.070959    0.000011
  O      0.766929   -1.070960   -0.000003
  H     -1.017552   -0.135199   -0.000003
  H     -1.017551   -2.006719    0.000036

 Multiplicity           Mult            ....    1
 Number of Electrons    NEL             ....   16
 Basis Dimension        Dim             ....  252

ORBITAL ENERGIES
----------------

  NO   OCC          E(Eh)            E(eV)
   0   2.0000     -19.229943      -523.2733
   1   2.0000     -10.339112      -281.3416
   2   2.0000      -1.093629       -29.7592
   3   2.0000      -0.649358       -17.6699
   4   2.0000      -0.515800       -14.0356
   5   2.0000      -0.473741       -12.8911
   6   2.0000      -0.428064       -11.6482
   7   2.0000      -0.289228        -7.8703
   8   0.0000      -0.052174        -1.4197
   9   0.0000      -0.038468        -1.0468
  10   0.0000      -0.013371        -0.3638
  11   0.0000      -0.004938        -0.1344
  12   0.0000       0.006727         0.1830

MULLIKEN ATOMIC CHARGES
-----------------------
   0 C :    1.524110
   1 O :   -0.801255
   2 H :   -0.361408
   3 H :   -0.361447
Sum of atomic charges:    0.0000000

LOEWDIN ATOMIC CHARGES
----------------------
   0 C :    0.119057
   1 O :    0.670847
   2 H :   -0.394952
   3 H :   -0.394952

  Mayer bond orders larger than 0.100000
B(  0-C ,  1-O ) :   1.1336 B(  0-C ,  2-H ) :   0.8517 B(  0-C ,  3-H ) :   0.8516
B(  1-O ,  2-H ) :   0.1126 B(  1-O ,  3-H ) :   0.1126

----------------------------------------------------------------------------------------------------
                     ABSORPTION SPECTRUM VIA TRANSITION ELECTRIC DIPOLE MOMENTS
----------------------------------------------------------------------------------------------------
     Transition      Energy     Energy  Wavelength fosc(D2)      D2        DX        DY        DZ
                      (eV)      (cm-1)    (nm)                 (au**2)    (au)      (au)      (au)
----------------------------------------------------------------------------------------------------
  0-1A  ->  1-1A    3.956338   31910.0   313.4   0.000000000   0.00000  -0.00000  -0.00000  -0.00000
  0-1A  ->  2-1A    5.932818   47851.4   209.0   0.016751660   0.11525  -0.00000   0.33948  -0.00001
  0-1A  ->  3-1A    6.701603   54052.1   185.0   0.029053093   0.17695   0.42066  -0.00000  -0.00000
  0-1A  ->  4-1A    6.710834   54126.5   184.8   0.017116658   0.10411  -0.00000  -0.32266   0.00001
  0-1A  ->  5-1A    6.898951   55643.8   179.7   0.000000000   0.00000   0.00000  -0.00000  -0.00000
  0-1A  ->  6-1A    8.270655   66707.3   149.9   0.019181593   0.09466  -0.00000  -0.30768   0.00001
  0-1A  ->  7-1A    8.416436   67883.1   147.3   0.006428169   0.03117  -0.17656  -0.00000   0.00000
  0-1A  ->  8-1A    8.715711   70297.0   142.3   0.007116915   0.03333   0.00000  -0.18256   0.00000
  0-1A  ->  9-1A    8.927352   72004.0   138.9   0.000000000   0.00000  -0.00000  -0.00000  -0.00000
  0-1A  -> 10-1A    8.984408   72464.1   138.0   0.045248018   0.20557   0.00000  -0.45339   0.00001
  0-1A  -> 11-1A    9.051720   73007.1   137.0   0.001057505   0.00477   0.00000  -0.00000   0.06906
  0-1A  -> 12-1A    9.350847   75419.7   132.6   0.002953850   0.01289   0.11355  -0.00000  -0.00000
  0-1A  -> 13-1A    9.449232   76213.2   131.2   0.003094957   0.01337  -0.00000  -0.00001  -0.11562
  0-1A  -> 14-1A    9.571608   77200.2   129.5   0.025482353   0.10867   0.00001   0.00001   0.32965
  0-1A  -> 15-1A    9.940802   80178.0   124.7   0.000000000   0.00000   0.00001   0.00000  -0.00000
  0-1A  -> 16-1A   10.057963   81123.0   123.3   0.037384182   0.15171   0.38950  -0.00000  -0.00000
  0-1A  -> 17-1A   10.247746   82653.7   121.0   0.000000000   0.00000  -0.00000  -0.00000   0.00000
  0-1A  -> 18-1A   10.259531   82748.7   120.8   0.006211530   0.02471  -0.00001   0.15720  -0.00000
  0-1A  -> 19-1A   10.414695   84000.2   119.0   0.019195244   0.07523   0.00000   0.00001   0.27428
  0-1A  -> 20-1A   10.628980   85728.5   116.6   0.075538777   0.29008  -0.53859   0.00000   0.00001
  0-1A  -> 21-1A   10.986672   88613.5   112.8   0.027025214   0.10040  -0.31686   0.00000   0.00000
  0-1A  -> 22-1A   11.101964   89543.4   111.7   0.233632258   0.85896  -0.92680   0.00000   0.00001
  0-1A  -> 23-1A   11.150353   89933.7   111.2   0.000000000   0.00000  -0.00000  -0.00000   0.00000
  0-1A  -> 24-1A   11.462807   92453.8   108.2   0.021312381   0.07589  -0.00000  -0.27548   0.00001
  0-1A  -> 25-1A   11.557788   93219.9   107.3   0.065108985   0.22994  -0.00001  -0.47952   0.00001
  0-1A  -> 26-1A   11.689438   94281.7   106.1   0.121237248   0.42334   0.65064  -0.00000  -0.00001
  0-1A  -> 27-1A   11.823551   95363.4   104.9   0.000273228   0.00094  -0.00001   0.00000   0.03071
  0-1A  -> 28-1A   11.871578   95750.7   104.4   0.024554514   0.08442  -0.29056  -0.00002   0.00005
  0-1A  -> 29-1A   11.871789   95752.4   104.4   0.000139323   0.00048   0.00066   0.00001   0.02188
  0-1A  -> 30-1A   11.894311   95934.1   104.2   0.088196791   0.30266  -0.00001   0.55015  -0.00001
  0-1A  -> 31-1A   11.999983   96786.4   103.3   0.035824031   0.12185   0.00000   0.00000   0.34907
  0-1A  -> 32-1A   12.023233   96973.9   103.1   0.000000000   0.00000  -0.00000   0.00000   0.00000
  0-1A  -> 33-1A   12.392073   99948.8   100.1   0.001767170   0.00582   0.00000  -0.00000  -0.07629
  0-1A  -> 34-1A   12.416695  100147.4    99.9   0.000000000   0.00000   0.00000  -0.00001   0.00000
  0-1A  -> 35-1A   12.447049  100392.2    99.6   0.001923557   0.00631   0.00001   0.07942  -0.00000
  0-1A  -> 36-1A   12.643931  101980.2    98.1   0.001288672   0.00416   0.00001   0.06450   0.00000
  0-1A  -> 37-1A   12.757208  102893.8    97.2   0.070325832   0.22501  -0.00001  -0.00001  -0.47435
  0-1A  -> 38-1A   12.800293  103241.3    96.9   0.007063644   0.02252   0.00000   0.15008  -0.00002
  0-1A  -> 39-1A   12.845867  103608.9    96.5   0.000292239   0.00093  -0.03047   0.00000  -0.00000
  0-1A  -> 40-1A   12.913130  104151.4    96.0   0.000000000   0.00000  -0.00000   0.00000  -0.00000
  0-1A  -> 41-1A   12.930746  104293.5    95.9   0.001513992   0.00478  -0.06913   0.00000  -0.00000
  0-1A  -> 42-1A   12.955122  104490.1    95.7   0.000000000   0.00000  -0.00000  -0.00000  -0.00000
  0-1A  -> 43-1A   13.232333  106726.0    93.7   0.015772780   0.04865  -0.00001   0.22058  -0.00000
  0-1A  -> 44-1A   13.254205  106902.4    93.5   0.052092206   0.16042   0.40053   0.00001  -0.00000
  0-1A  -> 45-1A   13.342364  107613.4    92.9   0.068321994   0.20901   0.00001   0.45718  -0.00001
  0-1A  -> 46-1A   13.457669  108543.4    92.1   0.044621792   0.13534   0.36788  -0.00000  -0.00000
  0-1A  -> 47-1A   13.769011  111054.6    90.0   0.015901832   0.04714   0.21712   0.00000  -0.00000
  0-1A  -> 48-1A   13.839655  111624.4    89.6   0.018320932   0.05403  -0.23245   0.00000   0.00000
  0-1A  -> 49-1A   13.902439  112130.7    89.2   0.000080236   0.00024   0.00000   0.00000  -0.01535
  0-1A  -> 50-1A   13.990492  112840.9    88.6   0.000000000   0.00000   0.00000   0.00000  -0.00001

FINAL SINGLE POINT ENERGY      -114.347065177556

DIPOLE MOMENT
-------------

Method             : SCF
Type of density    : Electron Density
Multiplicity       :   1
Irrep              :   0
Energy             :  -114.4924579156957520 Eh
Relativity type    :
Basis              : AO
                                X                 Y                 Z
Electronic contribution:      1.327618948       0.000000229      -0.000013118
Nuclear contribution   :     -2.221286038       0.000000378       0.000023299
                        -----------------------------------------
Total Dipole Moment    :     -0.893667089       0.000000608       0.000010181
                        -----------------------------------------
Magnitude (a.u.)       :      0.893667090
Magnitude (Debye)      :      2.271521221

Rotational constants in cm-1:             9.549432             1.319820             1.159558
Rotational constants in MHz :        286284.778499         39567.212183         34762.686433

                             ****ORCA TERMINATED NORMALLY****
TOTAL RUN TIME: 0 days 0 hours 3 minutes 17 seconds 295 msec
