                         Program Version 6.0.1  -  RELEASE   -
|  1> !def2-SVP PBE0 SARC/J def2-SVP/C Opt
|  2> * xyzfile 0 1 acrolein.xyz
|  3> %scf
|  4> MaxIter 100
|  5> end
|  6> %rel
|  7> method DKH
|  8> order 2
|  9> picturechange 2
| 10> end
| 11> $new_job
| 12> !def2-SVP PBE0 RI-SOMF(1X) SARC/J def2-SVP/C
| 13> %TDDFT
| 14> NROOTS  10
| 15> DOSOC   TRUE
| 16> TDA     TRUE
| 17> TRIPLETS TRUE
| 18> END
| 19> * xyzfile 0 1 acrolein.xyz
| 20> %scf
| 21> MaxIter 100
| 22> end
| 23> %rel
| 24> method DKH
| 25> order 2
| 26> picturechange 2
| 27> SOCType 3
| 28> SOCFlags 1,3,3,0
| 29> SOCMaxCenter 4
| 30> end
| 31>
| 32>                          ****END OF INPUT****
 Total Charge           Charge          ....    0
 Multiplicity           Mult            ....    1
 Number of Electrons    NEL             ....   30
FINAL SINGLE POINT ENERGY      -191.546853345634
FINAL SINGLE POINT ENERGY      -191.587643675286
FINAL SINGLE POINT ENERGY      -191.613519802741
FINAL SINGLE POINT ENERGY      -191.628892451206
FINAL SINGLE POINT ENERGY      -191.633845993295
FINAL SINGLE POINT ENERGY      -191.634252879040
FINAL SINGLE POINT ENERGY      -191.634549446496
FINAL SINGLE POINT ENERGY      -191.634522645627
FINAL SINGLE POINT ENERGY      -191.634568619768
FINAL SINGLE POINT ENERGY      -191.634570180394
                    ***********************HURRAY********************
FINAL SINGLE POINT ENERGY      -191.634570643460

CARTESIAN COORDINATES (ANGSTROEM)
---------------------------------
  C     -3.742584    0.871996   -0.000383
  C     -2.407969    0.247724   -0.000262
  H     -3.767608    1.966564   -0.000356
  H     -2.423177   -0.875061   -0.000242
  O     -1.369904    0.859806   -0.000054
  C     -4.854182    0.128783   -0.000525
  H     -4.796232   -0.965589   -0.000553
  H     -5.852544    0.573476   -0.000625

 Multiplicity           Mult            ....    1
 Number of Electrons    NEL             ....   30
 Basis Dimension        Dim             ....   76

ORBITAL ENERGIES
----------------

  NO   OCC          E(Eh)            E(eV)
   0   2.0000     -19.225546      -523.1537
   1   2.0000     -10.327580      -281.0277
   2   2.0000     -10.276329      -279.6331
   3   2.0000     -10.262802      -279.2650
   4   2.0000      -1.069682       -29.1075
   5   2.0000      -0.823287       -22.4028
   6   2.0000      -0.663179       -18.0460
   7   2.0000      -0.586658       -15.9638
   8   2.0000      -0.495874       -13.4934
   9   2.0000      -0.491226       -13.3669
  10   2.0000      -0.437390       -11.9020
  11   2.0000      -0.420908       -11.4535
  12   2.0000      -0.406406       -11.0589
  13   2.0000      -0.311205        -8.4683
  14   2.0000      -0.273118        -7.4319
  15   0.0000      -0.064751        -1.7620
  16   0.0000       0.057846         1.5741
  17   0.0000       0.082450         2.2436
  18   0.0000       0.087507         2.3812
  19   0.0000       0.135392         3.6842

MULLIKEN ATOMIC CHARGES
-----------------------
   0 C :   -0.100112
   1 C :    0.163136
   2 H :    0.057088
   3 H :    0.008657
   4 O :   -0.219952
   5 C :   -0.054972
   6 H :    0.068893
   7 H :    0.077262
Sum of atomic charges:   -0.0000000

LOEWDIN ATOMIC CHARGES
----------------------
   0 C :   -0.076631
   1 C :    0.095446
   2 H :    0.043800
   3 H :   -0.003675
   4 O :   -0.135558
   5 C :   -0.000733
   6 H :    0.036355
   7 H :    0.040995

  Mayer bond orders larger than 0.100000
B(  0-C ,  1-C ) :   1.0121 B(  0-C ,  2-H ) :   0.9634 B(  0-C ,  5-C ) :   1.8716
B(  1-C ,  3-H ) :   0.9429 B(  1-C ,  4-O ) :   2.0771 B(  5-C ,  6-H ) :   0.9583
B(  5-C ,  7-H ) :   0.9549

--------------------------------------------------------------------------------------------------------
      SOC CORRECTED ABSORPTION SPECTRUM VIA TRANSITION ELECTRIC DIPOLE MOMENTS
--------------------------------------------------------------------------------------------------------
      Transition         Energy     Energy  Wavelength fosc(D2)      D2       |DX|      |DY|      |DZ|
                          (eV)      (cm-1)    (nm)                 (au**2)    (au)      (au)      (au)
--------------------------------------------------------------------------------------------------------
  0-1.0A  ->  1-3.0A    3.040154   24520.5   407.8   0.000000001   0.00000   0.00013   0.00003   0.00000
  0-1.0A  ->  2-3.0A    3.040157   24520.5   407.8   0.000000001   0.00000   0.00000   0.00000   0.00009
  0-1.0A  ->  3-3.0A    3.040181   24520.7   407.8   0.000001787   0.00002   0.00475   0.00119   0.00000
  0-1.0A  ->  4-1.8A    3.645599   29403.7   340.1   0.000034719   0.00039   0.00001   0.00001   0.01972
  0-1.0A  ->  5-3.0A    3.648841   29429.9   339.8   0.000000000   0.00000   0.00001   0.00000   0.00000
  0-1.0A  ->  6-3.0A    3.648841   29429.9   339.8   0.000000000   0.00000   0.00000   0.00000   0.00005
  0-1.0A  ->  7-2.2A    3.650933   29446.8   339.6   0.000022395   0.00025   0.00001   0.00001   0.01582
  0-1.0A  ->  8-3.0A    6.003701   48423.1   206.5   0.000000000   0.00000   0.00001   0.00000   0.00000
  0-1.0A  ->  9-3.0A    6.003704   48423.1   206.5   0.000000000   0.00000   0.00000   0.00000   0.00004
  0-1.0A  -> 10-3.0A    6.003706   48423.2   206.5   0.000000000   0.00000   0.00000   0.00000   0.00003
  0-1.0A  -> 11-3.0A    6.655160   53677.5   186.3   0.000000835   0.00001   0.00219   0.00056   0.00000
  0-1.0A  -> 12-3.0A    6.655164   53677.5   186.3   0.000000365   0.00000   0.00146   0.00031   0.00000
  0-1.0A  -> 13-3.0A    6.655166   53677.5   186.3   0.000000000   0.00000   0.00000   0.00000   0.00000
  0-1.0A  -> 14-1.0A    6.971533   56229.2   177.8   0.494626952   2.89595   1.68110   0.26429   0.00021
  0-1.0A  -> 15-1.0A    7.060942   56950.3   175.6   0.000658435   0.00381   0.00003   0.00005   0.06169
  0-1.0A  -> 16-3.0A    7.120568   57431.3   174.1   0.000000141   0.00000   0.00074   0.00050   0.00000
  0-1.0A  -> 17-3.0A    7.120570   57431.3   174.1   0.000001289   0.00001   0.00270   0.00028   0.00000
  0-1.0A  -> 18-3.0A    7.120570   57431.3   174.1   0.000000011   0.00000   0.00000   0.00000   0.00025
  0-1.0A  -> 19-3.0A    7.432571   59947.7   166.8   0.000000444   0.00000   0.00156   0.00001   0.00000
  0-1.0A  -> 20-3.0A    7.432571   59947.7   166.8   0.000000038   0.00000   0.00000   0.00000   0.00046
  0-1.0A  -> 21-3.0A    7.432572   59947.7   166.8   0.000003419   0.00002   0.00433   0.00001   0.00000
  0-1.0A  -> 22-1.0A    7.516016   60620.8   165.0   0.000877782   0.00477   0.00008   0.00002   0.06904
  0-1.0A  -> 23-3.0A    7.816678   63045.8   158.6   0.000000001   0.00000   0.00000   0.00000   0.00007
  0-1.0A  -> 24-3.0A    7.816681   63045.8   158.6   0.000000000   0.00000   0.00001   0.00000   0.00000
  0-1.0A  -> 25-3.0A    7.816682   63045.8   158.6   0.000000015   0.00000   0.00000   0.00000   0.00028
  0-1.0A  -> 26-3.0A    7.965454   64245.7   155.7   0.000000011   0.00000   0.00000   0.00000   0.00024
  0-1.0A  -> 27-3.0A    7.965457   64245.8   155.7   0.000000001   0.00000   0.00003   0.00005   0.00000
  0-1.0A  -> 28-3.0A    7.965457   64245.8   155.7   0.000000001   0.00000   0.00000   0.00000   0.00005
  0-1.0A  -> 29-1.0A    8.215486   66262.4   150.9   0.001681225   0.00835   0.00002   0.00002   0.09139
  0-1.0A  -> 30-1.0A    8.538345   68866.4   145.2   0.038986222   0.18637   0.02010   0.43124   0.00000
  0-1.0A  -> 31-3.0A    8.559360   69035.9   144.9   0.000000041   0.00000   0.00000   0.00000   0.00044
  0-1.0A  -> 32-3.0A    8.559365   69035.9   144.9   0.000000000   0.00000   0.00000   0.00000   0.00003
  0-1.0A  -> 33-3.0A    8.559366   69036.0   144.9   0.000001380   0.00001   0.00065   0.00248   0.00000
  0-1.0A  -> 34-1.0A    8.726270   70382.1   142.1   0.021860979   0.10225   0.12501   0.29433   0.00002
  0-1.0A  -> 35-3.0A    8.859130   71453.7   140.0   0.000022280   0.00010   0.00717   0.00716   0.00000
  0-1.0A  -> 36-3.0A    8.859137   71453.8   140.0   0.000000001   0.00000   0.00000   0.00000   0.00006
  0-1.0A  -> 37-3.0A    8.859138   71453.8   140.0   0.000000762   0.00000   0.00141   0.00123   0.00000
  0-1.0A  -> 38-1.0A    8.992410   72528.7   137.9   0.293023299   1.33005   0.81718   0.81380   0.00014
  0-1.0A  -> 39-1.0A    9.260869   74694.0   133.9   0.001799768   0.00793   0.00004   0.00006   0.08906
  0-1.0A  -> 40-1.0A    9.264365   74722.2   133.8   0.001270575   0.00560   0.00004   0.00001   0.07482

FINAL SINGLE POINT ENERGY      -191.522847066287

DIPOLE MOMENT
-------------

Method             : SCF
Type of density    : Electron Density
Multiplicity       :   1
Irrep              :   0
Energy             :  -191.6345706707662941 Eh
Relativity type    :
Basis              : AO
                                X                 Y                 Z
Electronic contribution:      3.175700559       0.923265933       0.000362147
Nuclear contribution   :     -4.322903533      -1.310626804      -0.000543766
                        -----------------------------------------
Total Dipole Moment    :     -1.147202974      -0.387360871      -0.000181619
                        -----------------------------------------
Magnitude (a.u.)       :      1.210835720
Magnitude (Debye)      :      3.077699812

Rotational constants in cm-1:             1.594304             0.155137             0.141380
Rotational constants in MHz :         47796.034378          4650.882433          4238.451949

                             ****ORCA TERMINATED NORMALLY****
TOTAL RUN TIME: 0 days 0 hours 2 minutes 36 seconds 200 msec
